
     Program PHONON v.7.3 starts on 29Sep2025 at 14:15:31 

     This program is part of the open-source Quantum ESPRESSO suite
     for quantum simulation of materials; please cite
         "P. Giannozzi et al., J. Phys.:Condens. Matter 21 395502 (2009);
         "P. Giannozzi et al., J. Phys.:Condens. Matter 29 465901 (2017);
         "P. Giannozzi et al., J. Chem. Phys. 152 154105 (2020);
          URL http://www.quantum-espresso.org", 
     in publications or presentations arising from this work. More details at
     http://www.quantum-espresso.org/quote

     Parallel version (MPI), running on     2 processors

     MPI processes distributed on     1 nodes
     376 MiB available memory on the printing compute node when the environment starts

     Waiting for input...
     Reading input from standard input
     Run is not recoverable starting from scratch

     Reading xml data from directory:

     /u/51/gutierm2/unix/Software/YAIV/Tutorial/data/qe/tmp/Si.save/

     R & G space division:  proc/nbgrp/npool/nimage =       2
     Subspace diagonalization in iterative solution of the eigenvalue problem:
     a serial algorithm will be used

     file Si.pbe-n-kjpaw_psl.1.0.0.UPF: wavefunction(s)  3S 3P renormalized

     IMPORTANT: XC functional enforced from input :
     Exchange-correlation= PBE
                           (   1   4   3   4   0   0   0)
     Any further DFT definition will be discarded
     Please, verify this is what you really want


     Parallelization info
     --------------------
     sticks:   dense  smooth     PW     G-vecs:    dense   smooth      PW
     Min          36      36     30                  205      205     153
     Max          37      37     31                  206      206     154
     Sum          73      73     61                  411      411     307

     Using Slab Decomposition


     Check: negative core charge=   -0.005178

     negative rho (up, down):  9.218E-04 0.000E+00
     Reading collected, re-writing distributed wavefunctions in /u/51/gutierm2/unix/Software/YAIV/Tutorial/data/qe/tmp/


     Dynamical matrices for ( 2, 2, 2)  uniform grid of q-points
     (   3 q-points):
       N         xq(1)         xq(2)         xq(3) 
       1   0.000000000   0.000000000   0.000000000
       2  -0.353553391  -0.353553391   0.353553391
       3  -0.707106781   0.000000000   0.000000000

     Number and degeneracy of irreps per q-point
       N         xq(1)         xq(2)         xq(3)   N irreps
  autoval = -.6410E+00
     Irreps are as follows:

                     mode #   1
                     (  -0.49147  -0.00000   ) 
                     (   0.47518   0.00000   ) 
                     (  -0.18072  -0.00000   ) 
                     (   0.49147   0.00000   ) 
                     (  -0.47518  -0.00000   ) 
                     (   0.18072   0.00000   ) 
  autoval = -.6410E+00
     Irreps are as follows:

                     mode #   2
                     (  -0.09005  -0.00000   ) 
                     (  -0.32875  -0.00000   ) 
                     (  -0.61953  -0.00000   ) 
                     (   0.09005   0.00000   ) 
                     (   0.32875   0.00000   ) 
                     (   0.61953   0.00000   ) 
  autoval = -.6410E+00
     Irreps are as follows:

                     mode #   3
                     (  -0.50035  -0.00000   ) 
                     (  -0.40758  -0.00000   ) 
                     (   0.28901   0.00000   ) 
                     (   0.50035   0.00000   ) 
                     (   0.40758   0.00000   ) 
                     (  -0.28901  -0.00000   ) 
  autoval = 0.2074E+01
     Irreps are as follows:

                     mode #   4
                     (  -0.48090  -0.00000   ) 
                     (  -0.50938  -0.00000   ) 
                     (   0.09624  -0.00000   ) 
                     (  -0.48090  -0.00000   ) 
                     (  -0.50938  -0.00000   ) 
                     (   0.09624  -0.00000   ) 
  autoval = 0.2074E+01
     Irreps are as follows:

                     mode #   5
                     (  -0.14822  -0.00000   ) 
                     (   0.00932   0.00000   ) 
                     (  -0.69133  -0.00000   ) 
                     (  -0.14822  -0.00000   ) 
                     (   0.00932   0.00000   ) 
                     (  -0.69133  -0.00000   ) 
  autoval = 0.2074E+01
     Irreps are as follows:

                     mode #   6
                     (  -0.49675  -0.00000   ) 
                     (   0.49035   0.00000   ) 
                     (   0.11311   0.00000   ) 
                     (  -0.49675  -0.00000   ) 
                     (   0.49035   0.00000   ) 
                     (   0.11311   0.00000   ) 
       1   0.000000000   0.000000000   0.000000000       2
        3   3
  autoval = -.2954E+01
     Irreps are as follows:

                     mode #   1
                     (  -0.40825  -0.00000   ) 
                     (  -0.40825  -0.00000   ) 
                     (   0.40825   0.00000   ) 
                     (   0.40825   0.00000   ) 
                     (   0.40825   0.00000   ) 
                     (  -0.40825  -0.00000   ) 
  autoval = 0.4336E+00
     Irreps are as follows:

                     mode #   2
                     (  -0.40825  -0.00000   ) 
                     (  -0.40825  -0.00000   ) 
                     (   0.40825  -0.00000   ) 
                     (  -0.40825  -0.00000   ) 
                     (  -0.40825  -0.00000   ) 
                     (   0.40825  -0.00000   ) 
  autoval = 0.5153E+00
     Irreps are as follows:

                     mode #   3
                     (  -0.48815  -0.00000   ) 
                     (  -0.02291  -0.00000   ) 
                     (  -0.51106  -0.00000   ) 
                     (   0.48815  -0.00000   ) 
                     (   0.02291  -0.00000   ) 
                     (   0.51106  -0.00000   ) 
  autoval = 0.5153E+00
     Irreps are as follows:

                     mode #   4
                     (  -0.30829  -0.00000   ) 
                     (   0.57690  -0.00000   ) 
                     (   0.26861  -0.00000   ) 
                     (   0.30829   0.00000   ) 
                     (  -0.57690  -0.00000   ) 
                     (  -0.26861  -0.00000   ) 
  autoval = 0.2894E+01
     Irreps are as follows:

                     mode #   5
                     (  -0.18104  -0.00000   ) 
                     (   0.56530   0.00000   ) 
                     (   0.38426   0.00000   ) 
                     (  -0.18104  -0.00000   ) 
                     (   0.56530   0.00000   ) 
                     (   0.38426   0.00000   ) 
  autoval = 0.2894E+01
     Irreps are as follows:

                     mode #   6
                     (  -0.54823  -0.00000   ) 
                     (   0.11733  -0.00000   ) 
                     (  -0.43090  -0.00000   ) 
                     (  -0.54823  -0.00000   ) 
                     (   0.11733  -0.00000   ) 
                     (  -0.43090  -0.00000   ) 
       2  -0.353553391  -0.353553391   0.353553391       4
        1   1   2   2
  autoval = 0.2343E+00
     Irreps are as follows:

                     mode #   1
                     (   0.00000   0.00000   ) 
                     (  -0.62080  -0.00000   ) 
                     (  -0.33853   0.00000   ) 
                     (  -0.00000  -0.00000   ) 
                     (  -0.33853  -0.00000   ) 
                     (  -0.62080  -0.00000   ) 
  autoval = 0.2343E+00
     Irreps are as follows:

                     mode #   2
                     (  -0.00000   0.00000   ) 
                     (  -0.33853  -0.00000   ) 
                     (   0.62080  -0.00000   ) 
                     (  -0.00000   0.00000   ) 
                     (   0.62080   0.00000   ) 
                     (  -0.33853  -0.00000   ) 
  autoval = 0.3933E+00
     Irreps are as follows:

                     mode #   3
                     (  -0.31745  -0.00000   ) 
                     (   0.00000   0.00000   ) 
                     (  -0.00000  -0.00000   ) 
                     (  -0.94828  -0.00000   ) 
                     (  -0.00000  -0.00000   ) 
                     (  -0.00000   0.00000   ) 
  autoval = 0.3933E+00
     Irreps are as follows:

                     mode #   4
                     (  -0.94828  -0.00000   ) 
                     (  -0.00000   0.00000   ) 
                     (  -0.00000   0.00000   ) 
                     (   0.31745   0.00000   ) 
                     (  -0.00000  -0.00000   ) 
                     (  -0.00000  -0.00000   ) 
  autoval = 0.1522E+01
     Irreps are as follows:

                     mode #   5
                     (   0.00000   0.00000   ) 
                     (  -0.68376   0.00000   ) 
                     (   0.18019  -0.00000   ) 
                     (  -0.00000  -0.00000   ) 
                     (  -0.18019  -0.00000   ) 
                     (   0.68376   0.00000   ) 
  autoval = 0.1522E+01
     Irreps are as follows:

                     mode #   6
                     (   0.00000   0.00000   ) 
                     (  -0.18019  -0.00000   ) 
                     (  -0.68376   0.00000   ) 
                     (   0.00000   0.00000   ) 
                     (   0.68376   0.00000   ) 
                     (   0.18019   0.00000   ) 
       3  -0.707106781   0.000000000   0.000000000       3
        2   2   2

     Calculation of q =    0.0000000   0.0000000   0.0000000

                                                                                

     bravais-lattice index     =            0
     lattice parameter (alat)  =       7.3075  a.u.
     unit-cell volume          =     275.9279 (a.u.)^3
     number of atoms/cell      =            2
     number of atomic types    =            1
     kinetic-energy cut-off    =      10.0000  Ry
     charge density cut-off    =      20.0000  Ry
     convergence threshold     =      1.0E-05
     beta                      =       0.5000
     number of iterations used =            4
     Exchange-correlation= PBE
                           (   1   4   3   4   0   0   0)
     Non magnetic calculation with spin-orbit

     celldm(1)=    7.30752  celldm(2)=    0.00000  celldm(3)=    0.00000
     celldm(4)=    0.00000  celldm(5)=    0.00000  celldm(6)=    0.00000

     crystal axes: (cart. coord. in units of alat)
               a(1) = (  0.0000  0.7071  0.7071 )  
               a(2) = (  0.7071  0.0000  0.7071 )  
               a(3) = (  0.7071  0.7071  0.0000 )  

     reciprocal axes: (cart. coord. in units 2 pi/alat)
               b(1) = ( -0.7071  0.7071  0.7071 )  
               b(2) = (  0.7071 -0.7071  0.7071 )  
               b(3) = (  0.7071  0.7071 -0.7071 )  


     Atoms inside the unit cell: 

     Cartesian axes

     site n.  atom      mass           positions (alat units)
        1  Si     28.0855   tau(    1) = (    0.00000    0.00000    0.00000  )
        2  Si     28.0855   tau(    2) = (    0.35355    0.35355    0.35355  )

     Computing dynamical matrix for 
                    q = (   0.0000000   0.0000000   0.0000000 )

     49 Sym.Ops. (with q -> -q+G )

                                    s                        frac. trans.

      isym =  1     identity                                     

 cryst.   s( 1) = (     1          0          0      )
                  (     0          1          0      )
                  (     0          0          1      )

 cart.    s( 1) = (  1.0000000  0.0000000  0.0000000 )
                  (  0.0000000  1.0000000  0.0000000 )
                  (  0.0000000  0.0000000  1.0000000 )


      isym =  2     180 deg rotation - cart. axis [0,1,1]        

 cryst.   s( 2) = (     1          0          0      )    f =( -0.2500000 )
                  (     1         -1          0      )       ( -0.2500000 )
                  (     1          0         -1      )       ( -0.2500000 )

 cart.    s( 2) = ( -1.0000000  0.0000000  0.0000000 )    f =( -0.3535534 )
                  (  0.0000000  0.0000000  1.0000000 )       ( -0.3535534 )
                  (  0.0000000  1.0000000  0.0000000 )       ( -0.3535534 )


      isym =  3     inversion                                    

 cryst.   s( 3) = (    -1          0          0      )    f =( -0.2500000 )
                  (     0         -1          0      )       ( -0.2500000 )
                  (     0          0         -1      )       ( -0.2500000 )

 cart.    s( 3) = ( -1.0000000  0.0000000  0.0000000 )    f =( -0.3535534 )
                  (  0.0000000 -1.0000000  0.0000000 )       ( -0.3535534 )
                  (  0.0000000  0.0000000 -1.0000000 )       ( -0.3535534 )


      isym =  4     inv. 180 deg rotation - cart. axis [0,1,1]   

 cryst.   s( 4) = (    -1          0          0      )
                  (    -1          1          0      )
                  (    -1          0          1      )

 cart.    s( 4) = (  1.0000000  0.0000000  0.0000000 )
                  (  0.0000000  0.0000000 -1.0000000 )
                  (  0.0000000 -1.0000000  0.0000000 )


      isym =  5     180 deg rotation - cart. axis [1,0,0]        

 cryst.   s( 5) = (    -1          0          0      )
                  (    -1          0          1      )
                  (    -1          1          0      )

 cart.    s( 5) = (  1.0000000  0.0000000  0.0000000 )
                  (  0.0000000 -1.0000000  0.0000000 )
                  (  0.0000000  0.0000000 -1.0000000 )


      isym =  6     180 deg rotation - cart. axis [0,1,-1]       

 cryst.   s( 6) = (    -1          0          0      )    f =( -0.2500000 )
                  (     0          0         -1      )       ( -0.2500000 )
                  (     0         -1          0      )       ( -0.2500000 )

 cart.    s( 6) = ( -1.0000000  0.0000000  0.0000000 )    f =( -0.3535534 )
                  (  0.0000000  0.0000000 -1.0000000 )       ( -0.3535534 )
                  (  0.0000000 -1.0000000  0.0000000 )       ( -0.3535534 )


      isym =  7      90 deg rotation - cart. axis [-1,0,0]       

 cryst.   s( 7) = (     0         -1          1      )    f =( -0.2500000 )
                  (     0          0          1      )       ( -0.2500000 )
                  (    -1          0          1      )       ( -0.2500000 )

 cart.    s( 7) = (  1.0000000  0.0000000  0.0000000 )    f =( -0.3535534 )
                  (  0.0000000  0.0000000  1.0000000 )       ( -0.3535534 )
                  (  0.0000000 -1.0000000  0.0000000 )       ( -0.3535534 )


      isym =  8      90 deg rotation - cart. axis [1,0,0]        

 cryst.   s( 8) = (     0          1         -1      )    f =( -0.2500000 )
                  (    -1          1          0      )       ( -0.2500000 )
                  (     0          1          0      )       ( -0.2500000 )

 cart.    s( 8) = (  1.0000000  0.0000000  0.0000000 )    f =( -0.3535534 )
                  (  0.0000000  0.0000000 -1.0000000 )       ( -0.3535534 )
                  (  0.0000000  1.0000000  0.0000000 )       ( -0.3535534 )


      isym =  9     180 deg rotation - cart. axis [0,0,1]        

 cryst.   s( 9) = (     0          1         -1      )
                  (     1          0         -1      )
                  (     0          0         -1      )

 cart.    s( 9) = ( -1.0000000  0.0000000  0.0000000 )
                  (  0.0000000 -1.0000000  0.0000000 )
                  (  0.0000000  0.0000000  1.0000000 )


      isym = 10     inv. 180 deg rotation - cart. axis [0,0,1]   

 cryst.   s(10) = (     0         -1          1      )    f =( -0.2500000 )
                  (    -1          0          1      )       ( -0.2500000 )
                  (     0          0          1      )       ( -0.2500000 )

 cart.    s(10) = (  1.0000000  0.0000000  0.0000000 )    f =( -0.3535534 )
                  (  0.0000000  1.0000000  0.0000000 )       ( -0.3535534 )
                  (  0.0000000  0.0000000 -1.0000000 )       ( -0.3535534 )


      isym = 11     inv. 180 deg rotation - cart. axis [0,1,0]   

 cryst.   s(11) = (     0          1         -1      )    f =( -0.2500000 )
                  (     0          1          0      )       ( -0.2500000 )
                  (    -1          1          0      )       ( -0.2500000 )

 cart.    s(11) = (  1.0000000  0.0000000  0.0000000 )    f =( -0.3535534 )
                  (  0.0000000 -1.0000000  0.0000000 )       ( -0.3535534 )
                  (  0.0000000  0.0000000  1.0000000 )       ( -0.3535534 )


      isym = 12     inv. 180 deg rotation - cart. axis [1,0,0]   

 cryst.   s(12) = (     1          0          0      )    f =( -0.2500000 )
                  (     1          0         -1      )       ( -0.2500000 )
                  (     1         -1          0      )       ( -0.2500000 )

 cart.    s(12) = ( -1.0000000  0.0000000  0.0000000 )    f =( -0.3535534 )
                  (  0.0000000  1.0000000  0.0000000 )       ( -0.3535534 )
                  (  0.0000000  0.0000000  1.0000000 )       ( -0.3535534 )


      isym = 13     180 deg rotation - cart. axis [0,1,0]        

 cryst.   s(13) = (     0         -1          1      )
                  (     0         -1          0      )
                  (     1         -1          0      )

 cart.    s(13) = ( -1.0000000  0.0000000  0.0000000 )
                  (  0.0000000  1.0000000  0.0000000 )
                  (  0.0000000  0.0000000 -1.0000000 )


      isym = 14     inv. 180 deg rotation - cart. axis [0,1,-1]  

 cryst.   s(14) = (     1          0          0      )
                  (     0          0          1      )
                  (     0          1          0      )

 cart.    s(14) = (  1.0000000  0.0000000  0.0000000 )
                  (  0.0000000  0.0000000  1.0000000 )
                  (  0.0000000  1.0000000  0.0000000 )


      isym = 15     inv.  90 deg rotation - cart. axis [-1,0,0]  

 cryst.   s(15) = (     0          1         -1      )
                  (     0          0         -1      )
                  (     1          0         -1      )

 cart.    s(15) = ( -1.0000000  0.0000000  0.0000000 )
                  (  0.0000000  0.0000000 -1.0000000 )
                  (  0.0000000  1.0000000  0.0000000 )


      isym = 16     inv.  90 deg rotation - cart. axis [1,0,0]   

 cryst.   s(16) = (     0         -1          1      )
                  (     1         -1          0      )
                  (     0         -1          0      )

 cart.    s(16) = ( -1.0000000  0.0000000  0.0000000 )
                  (  0.0000000  0.0000000  1.0000000 )
                  (  0.0000000 -1.0000000  0.0000000 )


      isym = 17     120 deg rotation - cart. axis [-1,-1,-1]     

 cryst.   s(17) = (     0          0          1      )
                  (     1          0          0      )
                  (     0          1          0      )

 cart.    s(17) = (  0.0000000  1.0000000  0.0000000 )
                  (  0.0000000  0.0000000  1.0000000 )
                  (  1.0000000  0.0000000  0.0000000 )


      isym = 18     120 deg rotation - cart. axis [-1,1,1]       

 cryst.   s(18) = (     1         -1          0      )
                  (     0         -1          1      )
                  (     0         -1          0      )

 cart.    s(18) = (  0.0000000 -1.0000000  0.0000000 )
                  (  0.0000000  0.0000000  1.0000000 )
                  ( -1.0000000  0.0000000  0.0000000 )


      isym = 19     180 deg rotation - cart. axis [1,1,0]        

 cryst.   s(19) = (    -1          0          1      )    f =( -0.2500000 )
                  (     0         -1          1      )       ( -0.2500000 )
                  (     0          0          1      )       ( -0.2500000 )

 cart.    s(19) = (  0.0000000  1.0000000  0.0000000 )    f =( -0.3535534 )
                  (  1.0000000  0.0000000  0.0000000 )       ( -0.3535534 )
                  (  0.0000000  0.0000000 -1.0000000 )       ( -0.3535534 )


      isym = 20     120 deg rotation - cart. axis [1,-1,1]       

 cryst.   s(20) = (     0          0         -1      )
                  (     0          1         -1      )
                  (     1          0         -1      )

 cart.    s(20) = (  0.0000000 -1.0000000  0.0000000 )
                  (  0.0000000  0.0000000 -1.0000000 )
                  (  1.0000000  0.0000000  0.0000000 )


      isym = 21     120 deg rotation - cart. axis [1,1,1]        

 cryst.   s(21) = (     0          1          0      )
                  (     0          0          1      )
                  (     1          0          0      )

 cart.    s(21) = (  0.0000000  0.0000000  1.0000000 )
                  (  1.0000000  0.0000000  0.0000000 )
                  (  0.0000000  1.0000000  0.0000000 )


      isym = 22     120 deg rotation - cart. axis [-1,1,-1]      

 cryst.   s(22) = (    -1          0          1      )
                  (    -1          1          0      )
                  (    -1          0          0      )

 cart.    s(22) = (  0.0000000  0.0000000  1.0000000 )
                  ( -1.0000000  0.0000000  0.0000000 )
                  (  0.0000000 -1.0000000  0.0000000 )


      isym = 23     120 deg rotation - cart. axis [1,-1,-1]      

 cryst.   s(23) = (     1          0         -1      )
                  (     0          0         -1      )
                  (     0          1         -1      )

 cart.    s(23) = (  0.0000000  0.0000000 -1.0000000 )
                  ( -1.0000000  0.0000000  0.0000000 )
                  (  0.0000000  1.0000000  0.0000000 )


      isym = 24     inv. 180 deg rotation - cart. axis [1,0,1]   

 cryst.   s(24) = (     1         -1          0      )
                  (     0         -1          0      )
                  (     0         -1          1      )

 cart.    s(24) = (  0.0000000  0.0000000 -1.0000000 )
                  (  0.0000000  1.0000000  0.0000000 )
                  ( -1.0000000  0.0000000  0.0000000 )


      isym = 25      90 deg rotation - cart. axis [0,0,-1]       

 cryst.   s(25) = (     0          1          0      )    f =( -0.2500000 )
                  (     0          1         -1      )       ( -0.2500000 )
                  (    -1          1          0      )       ( -0.2500000 )

 cart.    s(25) = (  0.0000000  1.0000000  0.0000000 )    f =( -0.3535534 )
                  ( -1.0000000  0.0000000  0.0000000 )       ( -0.3535534 )
                  (  0.0000000  0.0000000  1.0000000 )       ( -0.3535534 )


      isym = 26     180 deg rotation - cart. axis [1,-1,0]       

 cryst.   s(26) = (     0         -1          0      )    f =( -0.2500000 )
                  (    -1          0          0      )       ( -0.2500000 )
                  (     0          0         -1      )       ( -0.2500000 )

 cart.    s(26) = (  0.0000000 -1.0000000  0.0000000 )    f =( -0.3535534 )
                  ( -1.0000000  0.0000000  0.0000000 )       ( -0.3535534 )
                  (  0.0000000  0.0000000 -1.0000000 )       ( -0.3535534 )


      isym = 27     inv. 120 deg rotation - cart. axis [1,1,-1]  

 cryst.   s(27) = (     1         -1          0      )    f =( -0.2500000 )
                  (     1          0          0      )       ( -0.2500000 )
                  (     1          0         -1      )       ( -0.2500000 )

 cart.    s(27) = (  0.0000000 -1.0000000  0.0000000 )    f =( -0.3535534 )
                  (  0.0000000  0.0000000  1.0000000 )       ( -0.3535534 )
                  (  1.0000000  0.0000000  0.0000000 )       ( -0.3535534 )


      isym = 28     inv. 120 deg rotation - cart. axis [-1,-1,1] 

 cryst.   s(28) = (     0          1          0      )    f =( -0.2500000 )
                  (    -1          1          0      )       ( -0.2500000 )
                  (     0          1         -1      )       ( -0.2500000 )

 cart.    s(28) = (  0.0000000  0.0000000  1.0000000 )    f =( -0.3535534 )
                  ( -1.0000000  0.0000000  0.0000000 )       ( -0.3535534 )
                  (  0.0000000  1.0000000  0.0000000 )       ( -0.3535534 )


      isym = 29     inv. 180 deg rotation - cart. axis [1,1,0]   

 cryst.   s(29) = (     1          0         -1      )
                  (     0          1         -1      )
                  (     0          0         -1      )

 cart.    s(29) = (  0.0000000 -1.0000000  0.0000000 )
                  ( -1.0000000  0.0000000  0.0000000 )
                  (  0.0000000  0.0000000  1.0000000 )


      isym = 30      90 deg rotation - cart. axis [0,0,1]        

 cryst.   s(30) = (     1          0         -1      )    f =( -0.2500000 )
                  (     1          0          0      )       ( -0.2500000 )
                  (     1         -1          0      )       ( -0.2500000 )

 cart.    s(30) = (  0.0000000 -1.0000000  0.0000000 )    f =( -0.3535534 )
                  (  1.0000000  0.0000000  0.0000000 )       ( -0.3535534 )
                  (  0.0000000  0.0000000  1.0000000 )       ( -0.3535534 )


      isym = 31     inv.  90 deg rotation - cart. axis [0,0,-1]  

 cryst.   s(31) = (     0         -1          0      )
                  (     0         -1          1      )
                  (     1         -1          0      )

 cart.    s(31) = (  0.0000000 -1.0000000  0.0000000 )
                  (  1.0000000  0.0000000  0.0000000 )
                  (  0.0000000  0.0000000 -1.0000000 )


      isym = 32     inv.  90 deg rotation - cart. axis [0,0,1]   

 cryst.   s(32) = (    -1          0          1      )
                  (    -1          0          0      )
                  (    -1          1          0      )

 cart.    s(32) = (  0.0000000  1.0000000  0.0000000 )
                  ( -1.0000000  0.0000000  0.0000000 )
                  (  0.0000000  0.0000000 -1.0000000 )


      isym = 33     120 deg rotation - cart. axis [1,1,-1]       

 cryst.   s(33) = (    -1          1          0      )
                  (    -1          0          0      )
                  (    -1          0          1      )

 cart.    s(33) = (  0.0000000  1.0000000  0.0000000 )
                  (  0.0000000  0.0000000 -1.0000000 )
                  ( -1.0000000  0.0000000  0.0000000 )


      isym = 34     inv. 180 deg rotation - cart. axis [-1,0,1]  

 cryst.   s(34) = (     0          0          1      )
                  (     0          1          0      )
                  (     1          0          0      )

 cart.    s(34) = (  0.0000000  0.0000000  1.0000000 )
                  (  0.0000000  1.0000000  0.0000000 )
                  (  1.0000000  0.0000000  0.0000000 )


      isym = 35     inv.  90 deg rotation - cart. axis [0,1,0]   

 cryst.   s(35) = (     0          0         -1      )
                  (     1          0         -1      )
                  (     0          1         -1      )

 cart.    s(35) = (  0.0000000  0.0000000 -1.0000000 )
                  (  0.0000000 -1.0000000  0.0000000 )
                  (  1.0000000  0.0000000  0.0000000 )


      isym = 36     inv.  90 deg rotation - cart. axis [0,-1,0]  

 cryst.   s(36) = (    -1          1          0      )
                  (    -1          0          1      )
                  (    -1          0          0      )

 cart.    s(36) = (  0.0000000  0.0000000  1.0000000 )
                  (  0.0000000 -1.0000000  0.0000000 )
                  ( -1.0000000  0.0000000  0.0000000 )


      isym = 37     180 deg rotation - cart. axis [-1,0,1]       

 cryst.   s(37) = (     0          0         -1      )    f =( -0.2500000 )
                  (     0         -1          0      )       ( -0.2500000 )
                  (    -1          0          0      )       ( -0.2500000 )

 cart.    s(37) = (  0.0000000  0.0000000 -1.0000000 )    f =( -0.3535534 )
                  (  0.0000000 -1.0000000  0.0000000 )       ( -0.3535534 )
                  ( -1.0000000  0.0000000  0.0000000 )       ( -0.3535534 )


      isym = 38     120 deg rotation - cart. axis [-1,-1,1]      

 cryst.   s(38) = (     0         -1          0      )
                  (     1         -1          0      )
                  (     0         -1          1      )

 cart.    s(38) = (  0.0000000  0.0000000 -1.0000000 )
                  (  1.0000000  0.0000000  0.0000000 )
                  (  0.0000000 -1.0000000  0.0000000 )


      isym = 39     180 deg rotation - cart. axis [1,0,1]        

 cryst.   s(39) = (    -1          1          0      )    f =( -0.2500000 )
                  (     0          1          0      )       ( -0.2500000 )
                  (     0          1         -1      )       ( -0.2500000 )

 cart.    s(39) = (  0.0000000  0.0000000  1.0000000 )    f =( -0.3535534 )
                  (  0.0000000 -1.0000000  0.0000000 )       ( -0.3535534 )
                  (  1.0000000  0.0000000  0.0000000 )       ( -0.3535534 )


      isym = 40     inv. 180 deg rotation - cart. axis [1,-1,0]  

 cryst.   s(40) = (     0          1          0      )
                  (     1          0          0      )
                  (     0          0          1      )

 cart.    s(40) = (  0.0000000  1.0000000  0.0000000 )
                  (  1.0000000  0.0000000  0.0000000 )
                  (  0.0000000  0.0000000  1.0000000 )


      isym = 41     inv. 120 deg rotation - cart. axis [-1,-1,-1]

 cryst.   s(41) = (     0          0         -1      )    f =( -0.2500000 )
                  (    -1          0          0      )       ( -0.2500000 )
                  (     0         -1          0      )       ( -0.2500000 )

 cart.    s(41) = (  0.0000000 -1.0000000  0.0000000 )    f =( -0.3535534 )
                  (  0.0000000  0.0000000 -1.0000000 )       ( -0.3535534 )
                  ( -1.0000000  0.0000000  0.0000000 )       ( -0.3535534 )


      isym = 42     inv. 120 deg rotation - cart. axis [-1,1,1]  

 cryst.   s(42) = (    -1          1          0      )    f =( -0.2500000 )
                  (     0          1         -1      )       ( -0.2500000 )
                  (     0          1          0      )       ( -0.2500000 )

 cart.    s(42) = (  0.0000000  1.0000000  0.0000000 )    f =( -0.3535534 )
                  (  0.0000000  0.0000000 -1.0000000 )       ( -0.3535534 )
                  (  1.0000000  0.0000000  0.0000000 )       ( -0.3535534 )


      isym = 43      90 deg rotation - cart. axis [0,1,0]        

 cryst.   s(43) = (     0          0          1      )    f =( -0.2500000 )
                  (    -1          0          1      )       ( -0.2500000 )
                  (     0         -1          1      )       ( -0.2500000 )

 cart.    s(43) = (  0.0000000  0.0000000  1.0000000 )    f =( -0.3535534 )
                  (  0.0000000  1.0000000  0.0000000 )       ( -0.3535534 )
                  ( -1.0000000  0.0000000  0.0000000 )       ( -0.3535534 )


      isym = 44     inv. 120 deg rotation - cart. axis [1,-1,1]  

 cryst.   s(44) = (     0          0          1      )    f =( -0.2500000 )
                  (     0         -1          1      )       ( -0.2500000 )
                  (    -1          0          1      )       ( -0.2500000 )

 cart.    s(44) = (  0.0000000  1.0000000  0.0000000 )    f =( -0.3535534 )
                  (  0.0000000  0.0000000  1.0000000 )       ( -0.3535534 )
                  ( -1.0000000  0.0000000  0.0000000 )       ( -0.3535534 )


      isym = 45     inv. 120 deg rotation - cart. axis [1,1,1]   

 cryst.   s(45) = (     0         -1          0      )    f =( -0.2500000 )
                  (     0          0         -1      )       ( -0.2500000 )
                  (    -1          0          0      )       ( -0.2500000 )

 cart.    s(45) = (  0.0000000  0.0000000 -1.0000000 )    f =( -0.3535534 )
                  ( -1.0000000  0.0000000  0.0000000 )       ( -0.3535534 )
                  (  0.0000000 -1.0000000  0.0000000 )       ( -0.3535534 )


      isym = 46     inv. 120 deg rotation - cart. axis [-1,1,-1] 

 cryst.   s(46) = (     1          0         -1      )    f =( -0.2500000 )
                  (     1         -1          0      )       ( -0.2500000 )
                  (     1          0          0      )       ( -0.2500000 )

 cart.    s(46) = (  0.0000000  0.0000000 -1.0000000 )    f =( -0.3535534 )
                  (  1.0000000  0.0000000  0.0000000 )       ( -0.3535534 )
                  (  0.0000000  1.0000000  0.0000000 )       ( -0.3535534 )


      isym = 47     inv. 120 deg rotation - cart. axis [1,-1,-1] 

 cryst.   s(47) = (    -1          0          1      )    f =( -0.2500000 )
                  (     0          0          1      )       ( -0.2500000 )
                  (     0         -1          1      )       ( -0.2500000 )

 cart.    s(47) = (  0.0000000  0.0000000  1.0000000 )    f =( -0.3535534 )
                  (  1.0000000  0.0000000  0.0000000 )       ( -0.3535534 )
                  (  0.0000000 -1.0000000  0.0000000 )       ( -0.3535534 )


      isym = 48      90 deg rotation - cart. axis [0,-1,0]       

 cryst.   s(48) = (     1         -1          0      )    f =( -0.2500000 )
                  (     1          0         -1      )       ( -0.2500000 )
                  (     1          0          0      )       ( -0.2500000 )

 cart.    s(48) = (  0.0000000  0.0000000 -1.0000000 )    f =( -0.3535534 )
                  (  0.0000000  1.0000000  0.0000000 )       ( -0.3535534 )
                  (  1.0000000  0.0000000  0.0000000 )       ( -0.3535534 )


     This transformation sends q -> -q+G

      isym = 49     identity                                     

 cryst.   s(49) = (     1          0          0      )
                  (     0          1          0      )
                  (     0          0          1      )

 cart.    s(49) = (  1.0000000  0.0000000  0.0000000 )
                  (  0.0000000  1.0000000  0.0000000 )
                  (  0.0000000  0.0000000  1.0000000 )


     G cutoff =   27.0527  (    205 G-vectors)     FFT grid: ( 12, 12, 12)

     number of k points=   142  Methfessel-Paxton smearing, width (Ry)=  0.0200
                       cart. coord. in units 2pi/alat
        k(    1) = (   0.0000000   0.7071068   0.0000000), wk =   0.0070423
        k(    2) = (   0.0176777   0.7071068   0.0000000), wk =   0.0070423
        k(    3) = (   0.0353553   0.7071068   0.0000000), wk =   0.0070423
        k(    4) = (   0.0530330   0.7071068   0.0000000), wk =   0.0070423
        k(    5) = (   0.0707107   0.7071068  -0.0000000), wk =   0.0070423
        k(    6) = (   0.0883883   0.7071068   0.0000000), wk =   0.0070423
        k(    7) = (   0.1060660   0.7071068   0.0000000), wk =   0.0070423
        k(    8) = (   0.1237437   0.7071068  -0.0000000), wk =   0.0070423
        k(    9) = (   0.1414214   0.7071068   0.0000000), wk =   0.0070423
        k(   10) = (   0.1590990   0.7071068   0.0000000), wk =   0.0070423
        k(   11) = (   0.1767767   0.7071068   0.0000000), wk =   0.0070423
        k(   12) = (   0.1944544   0.7071068   0.0000000), wk =   0.0070423
        k(   13) = (   0.2121320   0.7071068   0.0000000), wk =   0.0070423
        k(   14) = (   0.2298097   0.7071068   0.0000000), wk =   0.0070423
        k(   15) = (   0.2474874   0.7071068   0.0000000), wk =   0.0070423
        k(   16) = (   0.2651650   0.7071068   0.0000000), wk =   0.0070423
        k(   17) = (   0.2828427   0.7071068   0.0000000), wk =   0.0070423
        k(   18) = (   0.3005204   0.7071068   0.0000000), wk =   0.0070423
        k(   19) = (   0.3181981   0.7071068   0.0000000), wk =   0.0070423
        k(   20) = (   0.3358757   0.7071068   0.0000000), wk =   0.0070423
        k(   21) = (   0.3535534   0.7071068   0.0000000), wk =   0.0070423
        k(   22) = (   0.3535534   0.6894291   0.0176777), wk =   0.0070423
        k(   23) = (   0.3535534   0.6717514   0.0353553), wk =   0.0070423
        k(   24) = (   0.3535534   0.6540738   0.0530330), wk =   0.0070423
        k(   25) = (   0.3535534   0.6363961   0.0707107), wk =   0.0070423
        k(   26) = (   0.3535534   0.6187184   0.0883883), wk =   0.0070423
        k(   27) = (   0.3535534   0.6010408   0.1060660), wk =   0.0070423
        k(   28) = (   0.3535534   0.5833631   0.1237437), wk =   0.0070423
        k(   29) = (   0.3535534   0.5656854   0.1414214), wk =   0.0070423
        k(   30) = (   0.3535534   0.5480078   0.1590990), wk =   0.0070423
        k(   31) = (   0.3535534   0.5303301   0.1767767), wk =   0.0070423
        k(   32) = (   0.3535534   0.5126524   0.1944544), wk =   0.0070423
        k(   33) = (   0.3535534   0.4949747   0.2121320), wk =   0.0070423
        k(   34) = (   0.3535534   0.4772971   0.2298097), wk =   0.0070423
        k(   35) = (   0.3535534   0.4596194   0.2474874), wk =   0.0070423
        k(   36) = (   0.3535534   0.4419417   0.2651650), wk =   0.0070423
        k(   37) = (   0.3535534   0.4242641   0.2828427), wk =   0.0070423
        k(   38) = (   0.3535534   0.4065864   0.3005204), wk =   0.0070423
        k(   39) = (   0.3535534   0.3889087   0.3181981), wk =   0.0070423
        k(   40) = (   0.3535534   0.3712311   0.3358757), wk =   0.0070423
        k(   41) = (   0.3535534   0.3535534   0.3535534), wk =   0.0070423
        k(   42) = (   0.3358757   0.3358757   0.3358757), wk =   0.0070423
        k(   43) = (   0.3181981   0.3181981   0.3181981), wk =   0.0070423
        k(   44) = (   0.3005204   0.3005204   0.3005204), wk =   0.0070423
        k(   45) = (   0.2828427   0.2828427   0.2828427), wk =   0.0070423
        k(   46) = (   0.2651650   0.2651650   0.2651650), wk =   0.0070423
        k(   47) = (   0.2474874   0.2474874   0.2474874), wk =   0.0070423
        k(   48) = (   0.2298097   0.2298097   0.2298097), wk =   0.0070423
        k(   49) = (   0.2121320   0.2121320   0.2121320), wk =   0.0070423
        k(   50) = (   0.1944544   0.1944544   0.1944544), wk =   0.0070423
        k(   51) = (   0.1767767   0.1767767   0.1767767), wk =   0.0070423
        k(   52) = (   0.1590990   0.1590990   0.1590990), wk =   0.0070423
        k(   53) = (   0.1414214   0.1414214   0.1414214), wk =   0.0070423
        k(   54) = (   0.1237437   0.1237437   0.1237437), wk =   0.0070423
        k(   55) = (   0.1060660   0.1060660   0.1060660), wk =   0.0070423
        k(   56) = (   0.0883883   0.0883883   0.0883883), wk =   0.0070423
        k(   57) = (   0.0707107   0.0707107   0.0707107), wk =   0.0070423
        k(   58) = (   0.0530330   0.0530330   0.0530330), wk =   0.0070423
        k(   59) = (   0.0353553   0.0353553   0.0353553), wk =   0.0070423
        k(   60) = (   0.0176777   0.0176777   0.0176777), wk =   0.0070423
        k(   61) = (   0.0000000   0.0000000   0.0000000), wk =   0.0070423
        k(   62) = (   0.0000000   0.0353553   0.0000000), wk =   0.0070423
        k(   63) = (   0.0000000   0.0707107   0.0000000), wk =   0.0070423
        k(   64) = (   0.0000000   0.1060660   0.0000000), wk =   0.0070423
        k(   65) = (   0.0000000   0.1414214   0.0000000), wk =   0.0070423
        k(   66) = (   0.0000000   0.1767767   0.0000000), wk =   0.0070423
        k(   67) = (   0.0000000   0.2121320   0.0000000), wk =   0.0070423
        k(   68) = (   0.0000000   0.2474874   0.0000000), wk =   0.0070423
        k(   69) = (   0.0000000   0.2828427   0.0000000), wk =   0.0070423
        k(   70) = (   0.0000000   0.3181981   0.0000000), wk =   0.0070423
        k(   71) = (   0.0000000   0.3535534   0.0000000), wk =   0.0070423
        k(   72) = (   0.0000000   0.3889087   0.0000000), wk =   0.0070423
        k(   73) = (   0.0000000   0.4242641   0.0000000), wk =   0.0070423
        k(   74) = (   0.0000000   0.4596194   0.0000000), wk =   0.0070423
        k(   75) = (   0.0000000   0.4949747   0.0000000), wk =   0.0070423
        k(   76) = (   0.0000000   0.5303301   0.0000000), wk =   0.0070423
        k(   77) = (   0.0000000   0.5656854   0.0000000), wk =   0.0070423
        k(   78) = (   0.0000000   0.6010408   0.0000000), wk =   0.0070423
        k(   79) = (   0.0000000   0.6363961   0.0000000), wk =   0.0070423
        k(   80) = (   0.0000000   0.6717514   0.0000000), wk =   0.0070423
        k(   81) = (   0.0000000   0.7071068   0.0000000), wk =   0.0070423
        k(   82) = (   0.7071068   0.7071068   0.0000000), wk =   0.0070423
        k(   83) = (   0.6982679   0.6982679   0.0000000), wk =   0.0070423
        k(   84) = (   0.6894291   0.6894291   0.0000000), wk =   0.0070423
        k(   85) = (   0.6805903   0.6805903   0.0000000), wk =   0.0070423
        k(   86) = (   0.6717514   0.6717514   0.0000000), wk =   0.0070423
        k(   87) = (   0.6629126   0.6629126   0.0000000), wk =   0.0070423
        k(   88) = (   0.6540738   0.6540738   0.0000000), wk =   0.0070423
        k(   89) = (   0.6452349   0.6452349   0.0000000), wk =   0.0070423
        k(   90) = (   0.6363961   0.6363961   0.0000000), wk =   0.0070423
        k(   91) = (   0.6275573   0.6275573   0.0000000), wk =   0.0070423
        k(   92) = (   0.6187184   0.6187184   0.0000000), wk =   0.0070423
        k(   93) = (   0.6098796   0.6098796   0.0000000), wk =   0.0070423
        k(   94) = (   0.6010408   0.6010408   0.0000000), wk =   0.0070423
        k(   95) = (   0.5922019   0.5922019   0.0000000), wk =   0.0070423
        k(   96) = (   0.5833631   0.5833631   0.0000000), wk =   0.0070423
        k(   97) = (   0.5745243   0.5745243   0.0000000), wk =   0.0070423
        k(   98) = (   0.5656854   0.5656854   0.0000000), wk =   0.0070423
        k(   99) = (   0.5568466   0.5568466   0.0000000), wk =   0.0070423
        k(  100) = (   0.5480078   0.5480078   0.0000000), wk =   0.0070423
        k(  101) = (   0.5391689   0.5391689   0.0000000), wk =   0.0070423
        k(  102) = (   0.5303301   0.5303301   0.0000000), wk =   0.0070423
        k(  103) = (   0.5126524   0.5126524   0.0000000), wk =   0.0070423
        k(  104) = (   0.4949747   0.4949747   0.0000000), wk =   0.0070423
        k(  105) = (   0.4772971   0.4772971   0.0000000), wk =   0.0070423
        k(  106) = (   0.4596194   0.4596194   0.0000000), wk =   0.0070423
        k(  107) = (   0.4419417   0.4419417   0.0000000), wk =   0.0070423
        k(  108) = (   0.4242641   0.4242641   0.0000000), wk =   0.0070423
        k(  109) = (   0.4065864   0.4065864   0.0000000), wk =   0.0070423
        k(  110) = (   0.3889087   0.3889087   0.0000000), wk =   0.0070423
        k(  111) = (   0.3712311   0.3712311   0.0000000), wk =   0.0070423
        k(  112) = (   0.3535534   0.3535534   0.0000000), wk =   0.0070423
        k(  113) = (   0.3358757   0.3358757   0.0000000), wk =   0.0070423
        k(  114) = (   0.3181981   0.3181981   0.0000000), wk =   0.0070423
        k(  115) = (   0.3005204   0.3005204   0.0000000), wk =   0.0070423
        k(  116) = (   0.2828427   0.2828427   0.0000000), wk =   0.0070423
        k(  117) = (   0.2651650   0.2651650   0.0000000), wk =   0.0070423
        k(  118) = (   0.2474874   0.2474874   0.0000000), wk =   0.0070423
        k(  119) = (   0.2298097   0.2298097   0.0000000), wk =   0.0070423
        k(  120) = (   0.2121320   0.2121320   0.0000000), wk =   0.0070423
        k(  121) = (   0.1944544   0.1944544   0.0000000), wk =   0.0070423
        k(  122) = (   0.1767767   0.1767767   0.0000000), wk =   0.0070423
        k(  123) = (   0.1679379   0.1679379   0.0000000), wk =   0.0070423
        k(  124) = (   0.1590990   0.1590990   0.0000000), wk =   0.0070423
        k(  125) = (   0.1502602   0.1502602   0.0000000), wk =   0.0070423
        k(  126) = (   0.1414214   0.1414214   0.0000000), wk =   0.0070423
        k(  127) = (   0.1325825   0.1325825   0.0000000), wk =   0.0070423
        k(  128) = (   0.1237437   0.1237437   0.0000000), wk =   0.0070423
        k(  129) = (   0.1149049   0.1149049   0.0000000), wk =   0.0070423
        k(  130) = (   0.1060660   0.1060660   0.0000000), wk =   0.0070423
        k(  131) = (   0.0972272   0.0972272   0.0000000), wk =   0.0070423
        k(  132) = (   0.0883883   0.0883883   0.0000000), wk =   0.0070423
        k(  133) = (   0.0795495   0.0795495   0.0000000), wk =   0.0070423
        k(  134) = (   0.0707107   0.0707107   0.0000000), wk =   0.0070423
        k(  135) = (   0.0618718   0.0618718   0.0000000), wk =   0.0070423
        k(  136) = (   0.0530330   0.0530330   0.0000000), wk =   0.0070423
        k(  137) = (   0.0441942   0.0441942   0.0000000), wk =   0.0070423
        k(  138) = (   0.0353553   0.0353553   0.0000000), wk =   0.0070423
        k(  139) = (   0.0265165   0.0265165   0.0000000), wk =   0.0070423
        k(  140) = (   0.0176777   0.0176777   0.0000000), wk =   0.0070423
        k(  141) = (   0.0088388   0.0088388   0.0000000), wk =   0.0070423
        k(  142) = (   0.0000000   0.0000000   0.0000000), wk =   0.0070423

                       cryst. coord.
        k(    1) = (   0.5000000   0.0000000   0.5000000), wk =   0.0070423
        k(    2) = (   0.5000000   0.0125000   0.5125000), wk =   0.0070423
        k(    3) = (   0.5000000   0.0250000   0.5250000), wk =   0.0070423
        k(    4) = (   0.5000000   0.0375000   0.5375000), wk =   0.0070423
        k(    5) = (   0.5000000   0.0500000   0.5500000), wk =   0.0070423
        k(    6) = (   0.5000000   0.0625000   0.5625000), wk =   0.0070423
        k(    7) = (   0.5000000   0.0750000   0.5750000), wk =   0.0070423
        k(    8) = (   0.5000000   0.0875000   0.5875000), wk =   0.0070423
        k(    9) = (   0.5000000   0.1000000   0.6000000), wk =   0.0070423
        k(   10) = (   0.5000000   0.1125000   0.6125000), wk =   0.0070423
        k(   11) = (   0.5000000   0.1250000   0.6250000), wk =   0.0070423
        k(   12) = (   0.5000000   0.1375000   0.6375000), wk =   0.0070423
        k(   13) = (   0.5000000   0.1500000   0.6500000), wk =   0.0070423
        k(   14) = (   0.5000000   0.1625000   0.6625000), wk =   0.0070423
        k(   15) = (   0.5000000   0.1750000   0.6750000), wk =   0.0070423
        k(   16) = (   0.5000000   0.1875000   0.6875000), wk =   0.0070423
        k(   17) = (   0.5000000   0.2000000   0.7000000), wk =   0.0070423
        k(   18) = (   0.5000000   0.2125000   0.7125000), wk =   0.0070423
        k(   19) = (   0.5000000   0.2250000   0.7250000), wk =   0.0070423
        k(   20) = (   0.5000000   0.2375000   0.7375000), wk =   0.0070423
        k(   21) = (   0.5000000   0.2500000   0.7500000), wk =   0.0070423
        k(   22) = (   0.5000000   0.2625000   0.7375000), wk =   0.0070423
        k(   23) = (   0.5000000   0.2750000   0.7250000), wk =   0.0070423
        k(   24) = (   0.5000000   0.2875000   0.7125000), wk =   0.0070423
        k(   25) = (   0.5000000   0.3000000   0.7000000), wk =   0.0070423
        k(   26) = (   0.5000000   0.3125000   0.6875000), wk =   0.0070423
        k(   27) = (   0.5000000   0.3250000   0.6750000), wk =   0.0070423
        k(   28) = (   0.5000000   0.3375000   0.6625000), wk =   0.0070423
        k(   29) = (   0.5000000   0.3500000   0.6500000), wk =   0.0070423
        k(   30) = (   0.5000000   0.3625000   0.6375000), wk =   0.0070423
        k(   31) = (   0.5000000   0.3750000   0.6250000), wk =   0.0070423
        k(   32) = (   0.5000000   0.3875000   0.6125000), wk =   0.0070423
        k(   33) = (   0.5000000   0.4000000   0.6000000), wk =   0.0070423
        k(   34) = (   0.5000000   0.4125000   0.5875000), wk =   0.0070423
        k(   35) = (   0.5000000   0.4250000   0.5750000), wk =   0.0070423
        k(   36) = (   0.5000000   0.4375000   0.5625000), wk =   0.0070423
        k(   37) = (   0.5000000   0.4500000   0.5500000), wk =   0.0070423
        k(   38) = (   0.5000000   0.4625000   0.5375000), wk =   0.0070423
        k(   39) = (   0.5000000   0.4750000   0.5250000), wk =   0.0070423
        k(   40) = (   0.5000000   0.4875000   0.5125000), wk =   0.0070423
        k(   41) = (   0.5000000   0.5000000   0.5000000), wk =   0.0070423
        k(   42) = (   0.4750000   0.4750000   0.4750000), wk =   0.0070423
        k(   43) = (   0.4500000   0.4500000   0.4500000), wk =   0.0070423
        k(   44) = (   0.4250000   0.4250000   0.4250000), wk =   0.0070423
        k(   45) = (   0.4000000   0.4000000   0.4000000), wk =   0.0070423
        k(   46) = (   0.3750000   0.3750000   0.3750000), wk =   0.0070423
        k(   47) = (   0.3500000   0.3500000   0.3500000), wk =   0.0070423
        k(   48) = (   0.3250000   0.3250000   0.3250000), wk =   0.0070423
        k(   49) = (   0.3000000   0.3000000   0.3000000), wk =   0.0070423
        k(   50) = (   0.2750000   0.2750000   0.2750000), wk =   0.0070423
        k(   51) = (   0.2500000   0.2500000   0.2500000), wk =   0.0070423
        k(   52) = (   0.2250000   0.2250000   0.2250000), wk =   0.0070423
        k(   53) = (   0.2000000   0.2000000   0.2000000), wk =   0.0070423
        k(   54) = (   0.1750000   0.1750000   0.1750000), wk =   0.0070423
        k(   55) = (   0.1500000   0.1500000   0.1500000), wk =   0.0070423
        k(   56) = (   0.1250000   0.1250000   0.1250000), wk =   0.0070423
        k(   57) = (   0.1000000   0.1000000   0.1000000), wk =   0.0070423
        k(   58) = (   0.0750000   0.0750000   0.0750000), wk =   0.0070423
        k(   59) = (   0.0500000   0.0500000   0.0500000), wk =   0.0070423
        k(   60) = (   0.0250000   0.0250000   0.0250000), wk =   0.0070423
        k(   61) = (   0.0000000   0.0000000   0.0000000), wk =   0.0070423
        k(   62) = (   0.0250000   0.0000000   0.0250000), wk =   0.0070423
        k(   63) = (   0.0500000   0.0000000   0.0500000), wk =   0.0070423
        k(   64) = (   0.0750000   0.0000000   0.0750000), wk =   0.0070423
        k(   65) = (   0.1000000   0.0000000   0.1000000), wk =   0.0070423
        k(   66) = (   0.1250000   0.0000000   0.1250000), wk =   0.0070423
        k(   67) = (   0.1500000   0.0000000   0.1500000), wk =   0.0070423
        k(   68) = (   0.1750000   0.0000000   0.1750000), wk =   0.0070423
        k(   69) = (   0.2000000   0.0000000   0.2000000), wk =   0.0070423
        k(   70) = (   0.2250000   0.0000000   0.2250000), wk =   0.0070423
        k(   71) = (   0.2500000   0.0000000   0.2500000), wk =   0.0070423
        k(   72) = (   0.2750000   0.0000000   0.2750000), wk =   0.0070423
        k(   73) = (   0.3000000   0.0000000   0.3000000), wk =   0.0070423
        k(   74) = (   0.3250000   0.0000000   0.3250000), wk =   0.0070423
        k(   75) = (   0.3500000   0.0000000   0.3500000), wk =   0.0070423
        k(   76) = (   0.3750000   0.0000000   0.3750000), wk =   0.0070423
        k(   77) = (   0.4000000   0.0000000   0.4000000), wk =   0.0070423
        k(   78) = (   0.4250000   0.0000000   0.4250000), wk =   0.0070423
        k(   79) = (   0.4500000   0.0000000   0.4500000), wk =   0.0070423
        k(   80) = (   0.4750000   0.0000000   0.4750000), wk =   0.0070423
        k(   81) = (   0.5000000   0.0000000   0.5000000), wk =   0.0070423
        k(   82) = (   0.5000000   0.5000000   1.0000000), wk =   0.0070423
        k(   83) = (   0.4937500   0.4937500   0.9875000), wk =   0.0070423
        k(   84) = (   0.4875000   0.4875000   0.9750000), wk =   0.0070423
        k(   85) = (   0.4812500   0.4812500   0.9625000), wk =   0.0070423
        k(   86) = (   0.4750000   0.4750000   0.9500000), wk =   0.0070423
        k(   87) = (   0.4687500   0.4687500   0.9375000), wk =   0.0070423
        k(   88) = (   0.4625000   0.4625000   0.9250000), wk =   0.0070423
        k(   89) = (   0.4562500   0.4562500   0.9125000), wk =   0.0070423
        k(   90) = (   0.4500000   0.4500000   0.9000000), wk =   0.0070423
        k(   91) = (   0.4437500   0.4437500   0.8875000), wk =   0.0070423
        k(   92) = (   0.4375000   0.4375000   0.8750000), wk =   0.0070423
        k(   93) = (   0.4312500   0.4312500   0.8625000), wk =   0.0070423
        k(   94) = (   0.4250000   0.4250000   0.8500000), wk =   0.0070423
        k(   95) = (   0.4187500   0.4187500   0.8375000), wk =   0.0070423
        k(   96) = (   0.4125000   0.4125000   0.8250000), wk =   0.0070423
        k(   97) = (   0.4062500   0.4062500   0.8125000), wk =   0.0070423
        k(   98) = (   0.4000000   0.4000000   0.8000000), wk =   0.0070423
        k(   99) = (   0.3937500   0.3937500   0.7875000), wk =   0.0070423
        k(  100) = (   0.3875000   0.3875000   0.7750000), wk =   0.0070423
        k(  101) = (   0.3812500   0.3812500   0.7625000), wk =   0.0070423
        k(  102) = (   0.3750000   0.3750000   0.7500000), wk =   0.0070423
        k(  103) = (   0.3625000   0.3625000   0.7250000), wk =   0.0070423
        k(  104) = (   0.3500000   0.3500000   0.7000000), wk =   0.0070423
        k(  105) = (   0.3375000   0.3375000   0.6750000), wk =   0.0070423
        k(  106) = (   0.3250000   0.3250000   0.6500000), wk =   0.0070423
        k(  107) = (   0.3125000   0.3125000   0.6250000), wk =   0.0070423
        k(  108) = (   0.3000000   0.3000000   0.6000000), wk =   0.0070423
        k(  109) = (   0.2875000   0.2875000   0.5750000), wk =   0.0070423
        k(  110) = (   0.2750000   0.2750000   0.5500000), wk =   0.0070423
        k(  111) = (   0.2625000   0.2625000   0.5250000), wk =   0.0070423
        k(  112) = (   0.2500000   0.2500000   0.5000000), wk =   0.0070423
        k(  113) = (   0.2375000   0.2375000   0.4750000), wk =   0.0070423
        k(  114) = (   0.2250000   0.2250000   0.4500000), wk =   0.0070423
        k(  115) = (   0.2125000   0.2125000   0.4250000), wk =   0.0070423
        k(  116) = (   0.2000000   0.2000000   0.4000000), wk =   0.0070423
        k(  117) = (   0.1875000   0.1875000   0.3750000), wk =   0.0070423
        k(  118) = (   0.1750000   0.1750000   0.3500000), wk =   0.0070423
        k(  119) = (   0.1625000   0.1625000   0.3250000), wk =   0.0070423
        k(  120) = (   0.1500000   0.1500000   0.3000000), wk =   0.0070423
        k(  121) = (   0.1375000   0.1375000   0.2750000), wk =   0.0070423
        k(  122) = (   0.1250000   0.1250000   0.2500000), wk =   0.0070423
        k(  123) = (   0.1187500   0.1187500   0.2375000), wk =   0.0070423
        k(  124) = (   0.1125000   0.1125000   0.2250000), wk =   0.0070423
        k(  125) = (   0.1062500   0.1062500   0.2125000), wk =   0.0070423
        k(  126) = (   0.1000000   0.1000000   0.2000000), wk =   0.0070423
        k(  127) = (   0.0937500   0.0937500   0.1875000), wk =   0.0070423
        k(  128) = (   0.0875000   0.0875000   0.1750000), wk =   0.0070423
        k(  129) = (   0.0812500   0.0812500   0.1625000), wk =   0.0070423
        k(  130) = (   0.0750000   0.0750000   0.1500000), wk =   0.0070423
        k(  131) = (   0.0687500   0.0687500   0.1375000), wk =   0.0070423
        k(  132) = (   0.0625000   0.0625000   0.1250000), wk =   0.0070423
        k(  133) = (   0.0562500   0.0562500   0.1125000), wk =   0.0070423
        k(  134) = (   0.0500000   0.0500000   0.1000000), wk =   0.0070423
        k(  135) = (   0.0437500   0.0437500   0.0875000), wk =   0.0070423
        k(  136) = (   0.0375000   0.0375000   0.0750000), wk =   0.0070423
        k(  137) = (   0.0312500   0.0312500   0.0625000), wk =   0.0070423
        k(  138) = (   0.0250000   0.0250000   0.0500000), wk =   0.0070423
        k(  139) = (   0.0187500   0.0187500   0.0375000), wk =   0.0070423
        k(  140) = (   0.0125000   0.0125000   0.0250000), wk =   0.0070423
        k(  141) = (   0.0062500   0.0062500   0.0125000), wk =   0.0070423
        k(  142) = (   0.0000000   0.0000000   0.0000000), wk =   0.0070423

     PseudoPot. # 1 for Si read from file:
     /u/51/gutierm2/unix/Software/YAIV/Tutorial/data/pseudos/Si.pbe-n-kjpaw_psl.1.0.0.UPF
     MD5 check sum: c444e9044dc23291313a1dbe9410abd1
     Pseudo is Projector augmented-wave + core cor, Zval =  4.0
     Generated using 'atomic' code by A. Dal Corso  v.7.3
     Shape of augmentation charge: PSQ
     Using radial grid of 1141 points,  6 beta functions with: 
                l(1) =   0
                l(2) =   0
                l(3) =   1
                l(4) =   1
                l(5) =   2
                l(6) =   2
     Q(r) pseudized with 0 coefficients 


     double point group O_h (m-3m) 
     there are 10 classes and  0 irreducible representations
     the character table:


     Atomic displacements:
     There are    2 irreducible representations

     Representation     1      3 modes -  To be done
     Irreps are as follows:

     mode #   1              mode #   2              mode #   3
     (  -0.49147  -0.00000 ) (  -0.09005  -0.00000 ) (  -0.50035  -0.00000 ) 
     (   0.47518   0.00000 ) (  -0.32875  -0.00000 ) (  -0.40758  -0.00000 ) 
     (  -0.18072  -0.00000 ) (  -0.61953  -0.00000 ) (   0.28901   0.00000 ) 
     (   0.49147   0.00000 ) (   0.09005   0.00000 ) (   0.50035   0.00000 ) 
     (  -0.47518  -0.00000 ) (   0.32875   0.00000 ) (   0.40758   0.00000 ) 
     (   0.18072   0.00000 ) (   0.61953   0.00000 ) (  -0.28901  -0.00000 ) 

     Representation     2      3 modes -  To be done
     Irreps are as follows:

     mode #   4              mode #   5              mode #   6
     (  -0.48090  -0.00000 ) (  -0.14822  -0.00000 ) (  -0.49675  -0.00000 ) 
     (  -0.50938  -0.00000 ) (   0.00932   0.00000 ) (   0.49035   0.00000 ) 
     (   0.09624  -0.00000 ) (  -0.69133  -0.00000 ) (   0.11311   0.00000 ) 
     (  -0.48090  -0.00000 ) (  -0.14822  -0.00000 ) (  -0.49675  -0.00000 ) 
     (  -0.50938  -0.00000 ) (   0.00932   0.00000 ) (   0.49035   0.00000 ) 
     (   0.09624  -0.00000 ) (  -0.69133  -0.00000 ) (   0.11311   0.00000 ) 



     Alpha used in Ewald sum =   0.2000

     negative rho (up, down):  9.218E-04 0.000E+00
     PHONON       :      9.69s CPU      8.46s WALL



     Representation #   1 modes #   1   2   3

     Self-consistent Calculation

     Pert. #  1: Fermi energy shift (Ry) =    -4.6259E-18     1.4694E-38
     Pert. #  2: Fermi energy shift (Ry) =     2.0961E-18    -2.5714E-39
     Pert. #  3: Fermi energy shift (Ry) =    -3.2526E-18     6.4897E-39

      iter #   1 total cpu time :    13.9 secs   av.it.:   4.7
      thresh= 1.000E-02 alpha_mix =  0.500 |ddv_scf|^2 =  4.610E-05

     Pert. #  1: Fermi energy shift (Ry) =    -1.2649E-18     2.5714E-39
     Pert. #  2: Fermi energy shift (Ry) =    -1.3191E-18    -7.9591E-40
     Pert. #  3: Fermi energy shift (Ry) =    -2.1684E-19     2.0204E-39

      iter #   2 total cpu time :    17.7 secs   av.it.:   6.5
      thresh= 6.790E-04 alpha_mix =  0.500 |ddv_scf|^2 =  1.017E-06

     End of self-consistent calculation

     Convergence has been achieved 


     Representation #   2 modes #   4   5   6

     Self-consistent Calculation

     Pert. #  1: Fermi energy shift (Ry) =     1.3786E-24     3.1347E-37
     Pert. #  2: Fermi energy shift (Ry) =    -5.5145E-25    -4.3885E-37
     Pert. #  3: Fermi energy shift (Ry) =     3.0330E-24     0.0000E+00

      iter #   1 total cpu time :    23.2 secs   av.it.:   4.6
      thresh= 1.000E-02 alpha_mix =  0.500 |ddv_scf|^2 =  3.743E-06

     End of self-consistent calculation

     Convergence has been achieved 

     Number of q in the star =    1
     List of q in the star:
          1   0.000000000   0.000000000   0.000000000

     Diagonalizing the dynamical matrix

     q = (    0.000000000   0.000000000   0.000000000 ) 

 **************************************************************************
     freq (    1) =      10.029270 [THz] =     334.540452 [cm-1]
     freq (    2) =      10.029270 [THz] =     334.540452 [cm-1]
     freq (    3) =      10.029270 [THz] =     334.540452 [cm-1]
     freq (    4) =      29.236352 [THz] =     975.219733 [cm-1]
     freq (    5) =      29.236352 [THz] =     975.219733 [cm-1]
     freq (    6) =      29.236352 [THz] =     975.219733 [cm-1]
 **************************************************************************

     Mode symmetry, O_h (m-3m)  point group:

     freq (   1-   3) =        334.5  [cm-1]   --> T_1u G_15  G_4- I  
     freq (   4-   6) =        975.2  [cm-1]   --> T_2g G_25' G_5+ R  

     Calculation of q =   -0.3535534  -0.3535534   0.3535534

     Parallelization info
     --------------------
     sticks:   dense  smooth     PW     G-vecs:    dense   smooth      PW
     Min          36      36     30                  205      205     168
     Max          37      37     31                  206      206     171
     Sum          73      73     61                  411      411     339

     Using Slab Decomposition



     bravais-lattice index     =            0
     lattice parameter (alat)  =       7.3075  a.u.
     unit-cell volume          =     275.9279 (a.u.)^3
     number of atoms/cell      =            2
     number of atomic types    =            1
     number of electrons       =         8.00
     number of Kohn-Sham states=           16
     kinetic-energy cutoff     =      10.0000  Ry
     charge density cutoff     =      20.0000  Ry
     Exchange-correlation= PBE
                           (   1   4   3   4   0   0   0)
     Non magnetic calculation with spin-orbit


     celldm(1)=   7.307523  celldm(2)=   0.000000  celldm(3)=   0.000000
     celldm(4)=   0.000000  celldm(5)=   0.000000  celldm(6)=   0.000000

     crystal axes: (cart. coord. in units of alat)
               a(1) = (   0.000000   0.707107   0.707107 )  
               a(2) = (   0.707107   0.000000   0.707107 )  
               a(3) = (   0.707107   0.707107   0.000000 )  

     reciprocal axes: (cart. coord. in units 2 pi/alat)
               b(1) = ( -0.707107  0.707107  0.707107 )  
               b(2) = (  0.707107 -0.707107  0.707107 )  
               b(3) = (  0.707107  0.707107 -0.707107 )  


     PseudoPot. # 1 for Si read from file:
     /u/51/gutierm2/unix/Software/YAIV/Tutorial/data/pseudos/Si.pbe-n-kjpaw_psl.1.0.0.UPF
     MD5 check sum: c444e9044dc23291313a1dbe9410abd1
     Pseudo is Projector augmented-wave + core cor, Zval =  4.0
     Generated using 'atomic' code by A. Dal Corso  v.7.3
     Shape of augmentation charge: PSQ
     Using radial grid of 1141 points,  6 beta functions with: 
                l(1) =   0
                l(2) =   0
                l(3) =   1
                l(4) =   1
                l(5) =   2
                l(6) =   2
     Q(r) pseudized with 0 coefficients 


     atomic species   valence    mass     pseudopotential
     Si                4.00    28.08550     Si( 1.00)

     48 Sym. Ops., with inversion, found


                                    s                        frac. trans.

      isym =  1     identity                                     

 cryst.   s( 1) = (     1          0          0      )
                  (     0          1          0      )
                  (     0          0          1      )

 cart.    s( 1) = (  1.0000000  0.0000000  0.0000000 )
                  (  0.0000000  1.0000000  0.0000000 )
                  (  0.0000000  0.0000000  1.0000000 )


      isym =  2     180 deg rotation - cart. axis [0,1,1]        

 cryst.   s( 2) = (     1          0          0      )    f =( -0.2500000 )
                  (     1         -1          0      )       ( -0.2500000 )
                  (     1          0         -1      )       ( -0.2500000 )

 cart.    s( 2) = ( -1.0000000  0.0000000  0.0000000 )    f =( -0.3535534 )
                  (  0.0000000  0.0000000  1.0000000 )       ( -0.3535534 )
                  (  0.0000000  1.0000000  0.0000000 )       ( -0.3535534 )


      isym =  3     inversion                                    

 cryst.   s( 3) = (    -1          0          0      )    f =( -0.2500000 )
                  (     0         -1          0      )       ( -0.2500000 )
                  (     0          0         -1      )       ( -0.2500000 )

 cart.    s( 3) = ( -1.0000000  0.0000000  0.0000000 )    f =( -0.3535534 )
                  (  0.0000000 -1.0000000  0.0000000 )       ( -0.3535534 )
                  (  0.0000000  0.0000000 -1.0000000 )       ( -0.3535534 )


      isym =  4     inv. 180 deg rotation - cart. axis [0,1,1]   

 cryst.   s( 4) = (    -1          0          0      )
                  (    -1          1          0      )
                  (    -1          0          1      )

 cart.    s( 4) = (  1.0000000  0.0000000  0.0000000 )
                  (  0.0000000  0.0000000 -1.0000000 )
                  (  0.0000000 -1.0000000  0.0000000 )


      isym =  5     inv. 180 deg rotation - cart. axis [1,0,1]   

 cryst.   s( 5) = (     1         -1          0      )
                  (     0         -1          0      )
                  (     0         -1          1      )

 cart.    s( 5) = (  0.0000000  0.0000000 -1.0000000 )
                  (  0.0000000  1.0000000  0.0000000 )
                  ( -1.0000000  0.0000000  0.0000000 )


      isym =  6     180 deg rotation - cart. axis [1,-1,0]       

 cryst.   s( 6) = (     0         -1          0      )    f =( -0.2500000 )
                  (    -1          0          0      )       ( -0.2500000 )
                  (     0          0         -1      )       ( -0.2500000 )

 cart.    s( 6) = (  0.0000000 -1.0000000  0.0000000 )    f =( -0.3535534 )
                  ( -1.0000000  0.0000000  0.0000000 )       ( -0.3535534 )
                  (  0.0000000  0.0000000 -1.0000000 )       ( -0.3535534 )


      isym =  7     inv. 120 deg rotation - cart. axis [1,1,-1]  

 cryst.   s( 7) = (     1         -1          0      )    f =( -0.2500000 )
                  (     1          0          0      )       ( -0.2500000 )
                  (     1          0         -1      )       ( -0.2500000 )

 cart.    s( 7) = (  0.0000000 -1.0000000  0.0000000 )    f =( -0.3535534 )
                  (  0.0000000  0.0000000  1.0000000 )       ( -0.3535534 )
                  (  1.0000000  0.0000000  0.0000000 )       ( -0.3535534 )


      isym =  8     inv. 120 deg rotation - cart. axis [-1,-1,1] 

 cryst.   s( 8) = (     0          1          0      )    f =( -0.2500000 )
                  (    -1          1          0      )       ( -0.2500000 )
                  (     0          1         -1      )       ( -0.2500000 )

 cart.    s( 8) = (  0.0000000  0.0000000  1.0000000 )    f =( -0.3535534 )
                  ( -1.0000000  0.0000000  0.0000000 )       ( -0.3535534 )
                  (  0.0000000  1.0000000  0.0000000 )       ( -0.3535534 )


      isym =  9     120 deg rotation - cart. axis [1,1,-1]       

 cryst.   s( 9) = (    -1          1          0      )
                  (    -1          0          0      )
                  (    -1          0          1      )

 cart.    s( 9) = (  0.0000000  1.0000000  0.0000000 )
                  (  0.0000000  0.0000000 -1.0000000 )
                  ( -1.0000000  0.0000000  0.0000000 )


      isym = 10     120 deg rotation - cart. axis [-1,-1,1]      

 cryst.   s(10) = (     0         -1          0      )
                  (     1         -1          0      )
                  (     0         -1          1      )

 cart.    s(10) = (  0.0000000  0.0000000 -1.0000000 )
                  (  1.0000000  0.0000000  0.0000000 )
                  (  0.0000000 -1.0000000  0.0000000 )


      isym = 11     180 deg rotation - cart. axis [1,0,1]        

 cryst.   s(11) = (    -1          1          0      )    f =( -0.2500000 )
                  (     0          1          0      )       ( -0.2500000 )
                  (     0          1         -1      )       ( -0.2500000 )

 cart.    s(11) = (  0.0000000  0.0000000  1.0000000 )    f =( -0.3535534 )
                  (  0.0000000 -1.0000000  0.0000000 )       ( -0.3535534 )
                  (  1.0000000  0.0000000  0.0000000 )       ( -0.3535534 )


      isym = 12     inv. 180 deg rotation - cart. axis [1,-1,0]  

 cryst.   s(12) = (     0          1          0      )
                  (     1          0          0      )
                  (     0          0          1      )

 cart.    s(12) = (  0.0000000  1.0000000  0.0000000 )
                  (  1.0000000  0.0000000  0.0000000 )
                  (  0.0000000  0.0000000  1.0000000 )


      isym = 13     180 deg rotation - cart. axis [0,1,0]        

 cryst.   s(13) = (     0         -1          1      )
                  (     0         -1          0      )
                  (     1         -1          0      )

 cart.    s(13) = ( -1.0000000  0.0000000  0.0000000 )
                  (  0.0000000  1.0000000  0.0000000 )
                  (  0.0000000  0.0000000 -1.0000000 )


      isym = 14     inv. 180 deg rotation - cart. axis [0,1,-1]  

 cryst.   s(14) = (     1          0          0      )
                  (     0          0          1      )
                  (     0          1          0      )

 cart.    s(14) = (  1.0000000  0.0000000  0.0000000 )
                  (  0.0000000  0.0000000  1.0000000 )
                  (  0.0000000  1.0000000  0.0000000 )


      isym = 15     inv.  90 deg rotation - cart. axis [-1,0,0]  

 cryst.   s(15) = (     0          1         -1      )
                  (     0          0         -1      )
                  (     1          0         -1      )

 cart.    s(15) = ( -1.0000000  0.0000000  0.0000000 )
                  (  0.0000000  0.0000000 -1.0000000 )
                  (  0.0000000  1.0000000  0.0000000 )


      isym = 16     inv.  90 deg rotation - cart. axis [1,0,0]   

 cryst.   s(16) = (     0         -1          1      )
                  (     1         -1          0      )
                  (     0         -1          0      )

 cart.    s(16) = ( -1.0000000  0.0000000  0.0000000 )
                  (  0.0000000  0.0000000  1.0000000 )
                  (  0.0000000 -1.0000000  0.0000000 )


      isym = 17     120 deg rotation - cart. axis [-1,-1,-1]     

 cryst.   s(17) = (     0          0          1      )
                  (     1          0          0      )
                  (     0          1          0      )

 cart.    s(17) = (  0.0000000  1.0000000  0.0000000 )
                  (  0.0000000  0.0000000  1.0000000 )
                  (  1.0000000  0.0000000  0.0000000 )


      isym = 18     120 deg rotation - cart. axis [-1,1,1]       

 cryst.   s(18) = (     1         -1          0      )
                  (     0         -1          1      )
                  (     0         -1          0      )

 cart.    s(18) = (  0.0000000 -1.0000000  0.0000000 )
                  (  0.0000000  0.0000000  1.0000000 )
                  ( -1.0000000  0.0000000  0.0000000 )


      isym = 19     180 deg rotation - cart. axis [1,1,0]        

 cryst.   s(19) = (    -1          0          1      )    f =( -0.2500000 )
                  (     0         -1          1      )       ( -0.2500000 )
                  (     0          0          1      )       ( -0.2500000 )

 cart.    s(19) = (  0.0000000  1.0000000  0.0000000 )    f =( -0.3535534 )
                  (  1.0000000  0.0000000  0.0000000 )       ( -0.3535534 )
                  (  0.0000000  0.0000000 -1.0000000 )       ( -0.3535534 )


      isym = 20     120 deg rotation - cart. axis [1,-1,1]       

 cryst.   s(20) = (     0          0         -1      )
                  (     0          1         -1      )
                  (     1          0         -1      )

 cart.    s(20) = (  0.0000000 -1.0000000  0.0000000 )
                  (  0.0000000  0.0000000 -1.0000000 )
                  (  1.0000000  0.0000000  0.0000000 )


      isym = 21     120 deg rotation - cart. axis [1,1,1]        

 cryst.   s(21) = (     0          1          0      )
                  (     0          0          1      )
                  (     1          0          0      )

 cart.    s(21) = (  0.0000000  0.0000000  1.0000000 )
                  (  1.0000000  0.0000000  0.0000000 )
                  (  0.0000000  1.0000000  0.0000000 )


      isym = 22     120 deg rotation - cart. axis [-1,1,-1]      

 cryst.   s(22) = (    -1          0          1      )
                  (    -1          1          0      )
                  (    -1          0          0      )

 cart.    s(22) = (  0.0000000  0.0000000  1.0000000 )
                  ( -1.0000000  0.0000000  0.0000000 )
                  (  0.0000000 -1.0000000  0.0000000 )


      isym = 23     120 deg rotation - cart. axis [1,-1,-1]      

 cryst.   s(23) = (     1          0         -1      )
                  (     0          0         -1      )
                  (     0          1         -1      )

 cart.    s(23) = (  0.0000000  0.0000000 -1.0000000 )
                  ( -1.0000000  0.0000000  0.0000000 )
                  (  0.0000000  1.0000000  0.0000000 )


      isym = 24     180 deg rotation - cart. axis [1,0,0]        

 cryst.   s(24) = (    -1          0          0      )
                  (    -1          0          1      )
                  (    -1          1          0      )

 cart.    s(24) = (  1.0000000  0.0000000  0.0000000 )
                  (  0.0000000 -1.0000000  0.0000000 )
                  (  0.0000000  0.0000000 -1.0000000 )


      isym = 25      90 deg rotation - cart. axis [0,0,-1]       

 cryst.   s(25) = (     0          1          0      )    f =( -0.2500000 )
                  (     0          1         -1      )       ( -0.2500000 )
                  (    -1          1          0      )       ( -0.2500000 )

 cart.    s(25) = (  0.0000000  1.0000000  0.0000000 )    f =( -0.3535534 )
                  ( -1.0000000  0.0000000  0.0000000 )       ( -0.3535534 )
                  (  0.0000000  0.0000000  1.0000000 )       ( -0.3535534 )


      isym = 26     180 deg rotation - cart. axis [0,1,-1]       

 cryst.   s(26) = (    -1          0          0      )    f =( -0.2500000 )
                  (     0          0         -1      )       ( -0.2500000 )
                  (     0         -1          0      )       ( -0.2500000 )

 cart.    s(26) = ( -1.0000000  0.0000000  0.0000000 )    f =( -0.3535534 )
                  (  0.0000000  0.0000000 -1.0000000 )       ( -0.3535534 )
                  (  0.0000000 -1.0000000  0.0000000 )       ( -0.3535534 )


      isym = 27      90 deg rotation - cart. axis [-1,0,0]       

 cryst.   s(27) = (     0         -1          1      )    f =( -0.2500000 )
                  (     0          0          1      )       ( -0.2500000 )
                  (    -1          0          1      )       ( -0.2500000 )

 cart.    s(27) = (  1.0000000  0.0000000  0.0000000 )    f =( -0.3535534 )
                  (  0.0000000  0.0000000  1.0000000 )       ( -0.3535534 )
                  (  0.0000000 -1.0000000  0.0000000 )       ( -0.3535534 )


      isym = 28      90 deg rotation - cart. axis [1,0,0]        

 cryst.   s(28) = (     0          1         -1      )    f =( -0.2500000 )
                  (    -1          1          0      )       ( -0.2500000 )
                  (     0          1          0      )       ( -0.2500000 )

 cart.    s(28) = (  1.0000000  0.0000000  0.0000000 )    f =( -0.3535534 )
                  (  0.0000000  0.0000000 -1.0000000 )       ( -0.3535534 )
                  (  0.0000000  1.0000000  0.0000000 )       ( -0.3535534 )


      isym = 29     inv. 180 deg rotation - cart. axis [1,1,0]   

 cryst.   s(29) = (     1          0         -1      )
                  (     0          1         -1      )
                  (     0          0         -1      )

 cart.    s(29) = (  0.0000000 -1.0000000  0.0000000 )
                  ( -1.0000000  0.0000000  0.0000000 )
                  (  0.0000000  0.0000000  1.0000000 )


      isym = 30      90 deg rotation - cart. axis [0,0,1]        

 cryst.   s(30) = (     1          0         -1      )    f =( -0.2500000 )
                  (     1          0          0      )       ( -0.2500000 )
                  (     1         -1          0      )       ( -0.2500000 )

 cart.    s(30) = (  0.0000000 -1.0000000  0.0000000 )    f =( -0.3535534 )
                  (  1.0000000  0.0000000  0.0000000 )       ( -0.3535534 )
                  (  0.0000000  0.0000000  1.0000000 )       ( -0.3535534 )


      isym = 31     inv.  90 deg rotation - cart. axis [0,0,-1]  

 cryst.   s(31) = (     0         -1          0      )
                  (     0         -1          1      )
                  (     1         -1          0      )

 cart.    s(31) = (  0.0000000 -1.0000000  0.0000000 )
                  (  1.0000000  0.0000000  0.0000000 )
                  (  0.0000000  0.0000000 -1.0000000 )


      isym = 32     inv.  90 deg rotation - cart. axis [0,0,1]   

 cryst.   s(32) = (    -1          0          1      )
                  (    -1          0          0      )
                  (    -1          1          0      )

 cart.    s(32) = (  0.0000000  1.0000000  0.0000000 )
                  ( -1.0000000  0.0000000  0.0000000 )
                  (  0.0000000  0.0000000 -1.0000000 )


      isym = 33     180 deg rotation - cart. axis [0,0,1]        

 cryst.   s(33) = (     0          1         -1      )
                  (     1          0         -1      )
                  (     0          0         -1      )

 cart.    s(33) = ( -1.0000000  0.0000000  0.0000000 )
                  (  0.0000000 -1.0000000  0.0000000 )
                  (  0.0000000  0.0000000  1.0000000 )


      isym = 34     inv. 180 deg rotation - cart. axis [-1,0,1]  

 cryst.   s(34) = (     0          0          1      )
                  (     0          1          0      )
                  (     1          0          0      )

 cart.    s(34) = (  0.0000000  0.0000000  1.0000000 )
                  (  0.0000000  1.0000000  0.0000000 )
                  (  1.0000000  0.0000000  0.0000000 )


      isym = 35     inv.  90 deg rotation - cart. axis [0,1,0]   

 cryst.   s(35) = (     0          0         -1      )
                  (     1          0         -1      )
                  (     0          1         -1      )

 cart.    s(35) = (  0.0000000  0.0000000 -1.0000000 )
                  (  0.0000000 -1.0000000  0.0000000 )
                  (  1.0000000  0.0000000  0.0000000 )


      isym = 36     inv.  90 deg rotation - cart. axis [0,-1,0]  

 cryst.   s(36) = (    -1          1          0      )
                  (    -1          0          1      )
                  (    -1          0          0      )

 cart.    s(36) = (  0.0000000  0.0000000  1.0000000 )
                  (  0.0000000 -1.0000000  0.0000000 )
                  ( -1.0000000  0.0000000  0.0000000 )


      isym = 37     180 deg rotation - cart. axis [-1,0,1]       

 cryst.   s(37) = (     0          0         -1      )    f =( -0.2500000 )
                  (     0         -1          0      )       ( -0.2500000 )
                  (    -1          0          0      )       ( -0.2500000 )

 cart.    s(37) = (  0.0000000  0.0000000 -1.0000000 )    f =( -0.3535534 )
                  (  0.0000000 -1.0000000  0.0000000 )       ( -0.3535534 )
                  ( -1.0000000  0.0000000  0.0000000 )       ( -0.3535534 )


      isym = 38     inv. 180 deg rotation - cart. axis [0,0,1]   

 cryst.   s(38) = (     0         -1          1      )    f =( -0.2500000 )
                  (    -1          0          1      )       ( -0.2500000 )
                  (     0          0          1      )       ( -0.2500000 )

 cart.    s(38) = (  1.0000000  0.0000000  0.0000000 )    f =( -0.3535534 )
                  (  0.0000000  1.0000000  0.0000000 )       ( -0.3535534 )
                  (  0.0000000  0.0000000 -1.0000000 )       ( -0.3535534 )


      isym = 39     inv. 180 deg rotation - cart. axis [0,1,0]   

 cryst.   s(39) = (     0          1         -1      )    f =( -0.2500000 )
                  (     0          1          0      )       ( -0.2500000 )
                  (    -1          1          0      )       ( -0.2500000 )

[...]
        k(  461) = (   0.8875000   0.4437500   0.4437500), wk =   0.0023474
        k(  462) = (   0.8875000  -0.0562500  -0.0562500), wk =   0.0000000
        k(  463) = (   0.8750000   0.4375000   0.4375000), wk =   0.0023474
        k(  464) = (   0.8750000  -0.0625000  -0.0625000), wk =   0.0000000
        k(  465) = (   0.8625000   0.4312500   0.4312500), wk =   0.0023474
        k(  466) = (   0.8625000  -0.0687500  -0.0687500), wk =   0.0000000
        k(  467) = (   0.8500000   0.4250000   0.4250000), wk =   0.0023474
        k(  468) = (   0.8500000  -0.0750000  -0.0750000), wk =   0.0000000
        k(  469) = (   0.8375000   0.4187500   0.4187500), wk =   0.0023474
        k(  470) = (   0.8375000  -0.0812500  -0.0812500), wk =   0.0000000
        k(  471) = (   0.8250000   0.4125000   0.4125000), wk =   0.0023474
        k(  472) = (   0.8250000  -0.0875000  -0.0875000), wk =   0.0000000
        k(  473) = (   0.8125000   0.4062500   0.4062500), wk =   0.0023474
        k(  474) = (   0.8125000  -0.0937500  -0.0937500), wk =   0.0000000
        k(  475) = (   0.8000000   0.4000000   0.4000000), wk =   0.0023474
        k(  476) = (   0.8000000  -0.1000000  -0.1000000), wk =   0.0000000
        k(  477) = (   0.7875000   0.3937500   0.3937500), wk =   0.0023474
        k(  478) = (   0.7875000  -0.1062500  -0.1062500), wk =   0.0000000
        k(  479) = (   0.7750000   0.3875000   0.3875000), wk =   0.0023474
        k(  480) = (   0.7750000  -0.1125000  -0.1125000), wk =   0.0000000
        k(  481) = (   0.7625000   0.3812500   0.3812500), wk =   0.0023474
        k(  482) = (   0.7625000  -0.1187500  -0.1187500), wk =   0.0000000
        k(  483) = (   0.7500000   0.3750000   0.3750000), wk =   0.0023474
        k(  484) = (   0.7500000  -0.1250000  -0.1250000), wk =   0.0000000
        k(  485) = (   0.7250000   0.3625000   0.3625000), wk =   0.0023474
        k(  486) = (   0.7250000  -0.1375000  -0.1375000), wk =   0.0000000
        k(  487) = (   0.7000000   0.3500000   0.3500000), wk =   0.0023474
        k(  488) = (   0.7000000  -0.1500000  -0.1500000), wk =   0.0000000
        k(  489) = (   0.6750000   0.3375000   0.3375000), wk =   0.0023474
        k(  490) = (   0.6750000  -0.1625000  -0.1625000), wk =   0.0000000
        k(  491) = (   0.6500000   0.3250000   0.3250000), wk =   0.0023474
        k(  492) = (   0.6500000  -0.1750000  -0.1750000), wk =   0.0000000
        k(  493) = (   0.6250000   0.3125000   0.3125000), wk =   0.0023474
        k(  494) = (   0.6250000  -0.1875000  -0.1875000), wk =   0.0000000
        k(  495) = (   0.6000000   0.3000000   0.3000000), wk =   0.0023474
        k(  496) = (   0.6000000  -0.2000000  -0.2000000), wk =   0.0000000
        k(  497) = (   0.5750000   0.2875000   0.2875000), wk =   0.0023474
        k(  498) = (   0.5750000  -0.2125000  -0.2125000), wk =   0.0000000
        k(  499) = (   0.5500000   0.2750000   0.2750000), wk =   0.0023474
        k(  500) = (   0.5500000  -0.2250000  -0.2250000), wk =   0.0000000
        k(  501) = (   0.5250000   0.2625000   0.2625000), wk =   0.0023474
        k(  502) = (   0.5250000  -0.2375000  -0.2375000), wk =   0.0000000
        k(  503) = (   0.5000000   0.2500000   0.2500000), wk =   0.0023474
        k(  504) = (   0.5000000  -0.2500000  -0.2500000), wk =   0.0000000
        k(  505) = (   0.4750000   0.2375000   0.2375000), wk =   0.0023474
        k(  506) = (   0.4750000  -0.2625000  -0.2625000), wk =   0.0000000
        k(  507) = (   0.4500000   0.2250000   0.2250000), wk =   0.0023474
        k(  508) = (   0.4500000  -0.2750000  -0.2750000), wk =   0.0000000
        k(  509) = (   0.4250000   0.2125000   0.2125000), wk =   0.0023474
        k(  510) = (   0.4250000  -0.2875000  -0.2875000), wk =   0.0000000
        k(  511) = (   0.4000000   0.2000000   0.2000000), wk =   0.0023474
        k(  512) = (   0.4000000  -0.3000000  -0.3000000), wk =   0.0000000
        k(  513) = (   0.3750000   0.1875000   0.1875000), wk =   0.0023474
        k(  514) = (   0.3750000  -0.3125000  -0.3125000), wk =   0.0000000
        k(  515) = (   0.3500000   0.1750000   0.1750000), wk =   0.0023474
        k(  516) = (   0.3500000  -0.3250000  -0.3250000), wk =   0.0000000
        k(  517) = (   0.3250000   0.1625000   0.1625000), wk =   0.0023474
        k(  518) = (   0.3250000  -0.3375000  -0.3375000), wk =   0.0000000
        k(  519) = (   0.3000000   0.1500000   0.1500000), wk =   0.0023474
        k(  520) = (   0.3000000  -0.3500000  -0.3500000), wk =   0.0000000
        k(  521) = (   0.2750000   0.1375000   0.1375000), wk =   0.0023474
        k(  522) = (   0.2750000  -0.3625000  -0.3625000), wk =   0.0000000
        k(  523) = (   0.2500000   0.1250000   0.1250000), wk =   0.0023474
        k(  524) = (   0.2500000  -0.3750000  -0.3750000), wk =   0.0000000
        k(  525) = (   0.2375000   0.1187500   0.1187500), wk =   0.0023474
        k(  526) = (   0.2375000  -0.3812500  -0.3812500), wk =   0.0000000
        k(  527) = (   0.2250000   0.1125000   0.1125000), wk =   0.0023474
        k(  528) = (   0.2250000  -0.3875000  -0.3875000), wk =   0.0000000
        k(  529) = (   0.2125000   0.1062500   0.1062500), wk =   0.0023474
        k(  530) = (   0.2125000  -0.3937500  -0.3937500), wk =   0.0000000
        k(  531) = (   0.2000000   0.1000000   0.1000000), wk =   0.0023474
        k(  532) = (   0.2000000  -0.4000000  -0.4000000), wk =   0.0000000
        k(  533) = (   0.1875000   0.0937500   0.0937500), wk =   0.0023474
        k(  534) = (   0.1875000  -0.4062500  -0.4062500), wk =   0.0000000
        k(  535) = (   0.1750000   0.0875000   0.0875000), wk =   0.0023474
        k(  536) = (   0.1750000  -0.4125000  -0.4125000), wk =   0.0000000
        k(  537) = (   0.1625000   0.0812500   0.0812500), wk =   0.0023474
        k(  538) = (   0.1625000  -0.4187500  -0.4187500), wk =   0.0000000
        k(  539) = (   0.1500000   0.0750000   0.0750000), wk =   0.0023474
        k(  540) = (   0.1500000  -0.4250000  -0.4250000), wk =   0.0000000
        k(  541) = (   0.1375000   0.0687500   0.0687500), wk =   0.0023474
        k(  542) = (   0.1375000  -0.4312500  -0.4312500), wk =   0.0000000
        k(  543) = (   0.1250000   0.0625000   0.0625000), wk =   0.0023474
        k(  544) = (   0.1250000  -0.4375000  -0.4375000), wk =   0.0000000
        k(  545) = (   0.1125000   0.0562500   0.0562500), wk =   0.0023474
        k(  546) = (   0.1125000  -0.4437500  -0.4437500), wk =   0.0000000
        k(  547) = (   0.1000000   0.0500000   0.0500000), wk =   0.0023474
        k(  548) = (   0.1000000  -0.4500000  -0.4500000), wk =   0.0000000
        k(  549) = (   0.0875000   0.0437500   0.0437500), wk =   0.0023474
        k(  550) = (   0.0875000  -0.4562500  -0.4562500), wk =   0.0000000
        k(  551) = (   0.0750000   0.0375000   0.0375000), wk =   0.0023474
        k(  552) = (   0.0750000  -0.4625000  -0.4625000), wk =   0.0000000
        k(  553) = (   0.0625000   0.0312500   0.0312500), wk =   0.0023474
        k(  554) = (   0.0625000  -0.4687500  -0.4687500), wk =   0.0000000
        k(  555) = (   0.0500000   0.0250000   0.0250000), wk =   0.0023474
        k(  556) = (   0.0500000  -0.4750000  -0.4750000), wk =   0.0000000
        k(  557) = (   0.0375000   0.0187500   0.0187500), wk =   0.0023474
        k(  558) = (   0.0375000  -0.4812500  -0.4812500), wk =   0.0000000
        k(  559) = (   0.0250000   0.0125000   0.0125000), wk =   0.0023474
        k(  560) = (   0.0250000  -0.4875000  -0.4875000), wk =   0.0000000
        k(  561) = (   0.0125000   0.0062500   0.0062500), wk =   0.0023474
        k(  562) = (   0.0125000  -0.4937500  -0.4937500), wk =   0.0000000

     PseudoPot. # 1 for Si read from file:
     /u/51/gutierm2/unix/Software/YAIV/Tutorial/data/pseudos/Si.pbe-n-kjpaw_psl.1.0.0.UPF
     MD5 check sum: c444e9044dc23291313a1dbe9410abd1
     Pseudo is Projector augmented-wave + core cor, Zval =  4.0
     Generated using 'atomic' code by A. Dal Corso  v.7.3
     Shape of augmentation charge: PSQ
     Using radial grid of 1141 points,  6 beta functions with: 
                l(1) =   0
                l(2) =   0
                l(3) =   1
                l(4) =   1
                l(5) =   2
                l(6) =   2
     Q(r) pseudized with 0 coefficients 



     Atomic displacements:
     There are    3 irreducible representations

     Representation     1      2 modes -  To be done
     Irreps are as follows:

           mode #   1                           mode #   2
           (   0.00000   0.00000   )            (  -0.00000   0.00000   ) 
           (  -0.62080  -0.00000   )            (  -0.33853  -0.00000   ) 
           (  -0.33853   0.00000   )            (   0.62080  -0.00000   ) 
           (  -0.00000  -0.00000   )            (  -0.00000   0.00000   ) 
           (  -0.33853  -0.00000   )            (   0.62080   0.00000   ) 
           (  -0.62080  -0.00000   )            (  -0.33853  -0.00000   ) 

     Representation     2      2 modes -  To be done
     Irreps are as follows:

           mode #   3                           mode #   4
           (  -0.31745  -0.00000   )            (  -0.94828  -0.00000   ) 
           (   0.00000   0.00000   )            (  -0.00000   0.00000   ) 
           (  -0.00000  -0.00000   )            (  -0.00000   0.00000   ) 
           (  -0.94828  -0.00000   )            (   0.31745   0.00000   ) 
           (  -0.00000  -0.00000   )            (  -0.00000  -0.00000   ) 
           (  -0.00000   0.00000   )            (  -0.00000  -0.00000   ) 

     Representation     3      2 modes -  To be done
     Irreps are as follows:

           mode #   5                           mode #   6
           (   0.00000   0.00000   )            (   0.00000   0.00000   ) 
           (  -0.68376   0.00000   )            (  -0.18019  -0.00000   ) 
           (   0.18019  -0.00000   )            (  -0.68376   0.00000   ) 
           (  -0.00000  -0.00000   )            (   0.00000   0.00000   ) 
           (  -0.18019  -0.00000   )            (   0.68376   0.00000   ) 
           (   0.68376   0.00000   )            (   0.18019   0.00000   ) 



     Alpha used in Ewald sum =   0.2000

     negative rho (up, down):  9.218E-04 0.000E+00
     PHONON       :   2m44.37s CPU   2m26.49s WALL



     Representation #   1 modes #   1   2

     Self-consistent Calculation

      iter #   1 total cpu time :   155.2 secs   av.it.:   3.9
      thresh= 1.000E-02 alpha_mix =  0.500 |ddv_scf|^2 =  3.022E-05

      iter #   2 total cpu time :   159.2 secs   av.it.:   5.5
      thresh= 5.497E-04 alpha_mix =  0.500 |ddv_scf|^2 =  2.886E-06

     End of self-consistent calculation

     Convergence has been achieved 


     Representation #   2 modes #   3   4

     Self-consistent Calculation

      iter #   1 total cpu time :   165.9 secs   av.it.:   5.1
      thresh= 1.000E-02 alpha_mix =  0.500 |ddv_scf|^2 =  3.225E-04

      iter #   2 total cpu time :   170.4 secs   av.it.:   6.8
      thresh= 1.796E-03 alpha_mix =  0.500 |ddv_scf|^2 =  2.840E-04

      iter #   3 total cpu time :   174.6 secs   av.it.:   6.3
      thresh= 1.685E-03 alpha_mix =  0.500 |ddv_scf|^2 =  1.692E-06

     End of self-consistent calculation

     Convergence has been achieved 


     Representation #   3 modes #   5   6

     Self-consistent Calculation

      iter #   1 total cpu time :   181.4 secs   av.it.:   4.9
      thresh= 1.000E-02 alpha_mix =  0.500 |ddv_scf|^2 =  1.056E-04

      iter #   2 total cpu time :   185.9 secs   av.it.:   6.5
      thresh= 1.028E-03 alpha_mix =  0.500 |ddv_scf|^2 =  1.211E-05

      iter #   3 total cpu time :   190.0 secs   av.it.:   5.9
      thresh= 3.479E-04 alpha_mix =  0.500 |ddv_scf|^2 =  1.631E-06

     End of self-consistent calculation

     Convergence has been achieved 

     Number of q in the star =    3
     List of q in the star:
          1  -0.707106781   0.000000000   0.000000000
          2   0.000000000   0.000000000  -0.707106781
          3   0.000000000  -0.707106781   0.000000000

     Diagonalizing the dynamical matrix

     q = (   -0.707106781   0.000000000   0.000000000 ) 

 **************************************************************************
     freq (    1) =      20.660682 [THz] =     689.166184 [cm-1]
     freq (    2) =      20.660682 [THz] =     689.166184 [cm-1]
     freq (    3) =      26.901495 [THz] =     897.337276 [cm-1]
     freq (    4) =      26.901495 [THz] =     897.337276 [cm-1]
     freq (    5) =      28.388938 [THz] =     946.953057 [cm-1]
     freq (    6) =      28.388938 [THz] =     946.953057 [cm-1]
 **************************************************************************

     init_run     :      0.35s CPU      0.32s WALL (       2 calls)
     electrons    :     30.59s CPU     26.15s WALL (       2 calls)

     Called by init_run:
     wfcinit      :      0.00s CPU      0.00s WALL (       2 calls)
     wfcinit:atom :      0.04s CPU      0.04s WALL (    1080 calls)
     wfcinit:wfcr :      1.37s CPU      1.33s WALL (    1080 calls)
     potinit      :      0.24s CPU      0.22s WALL (       2 calls)
     hinit0       :      0.07s CPU      0.07s WALL (       2 calls)

     Called by electrons:
     c_bands      :     30.53s CPU     26.08s WALL (       2 calls)
     v_of_rho     :      0.00s CPU      0.00s WALL (       3 calls)
     v_h          :      0.00s CPU      0.00s WALL (       3 calls)
     v_xc         :      0.00s CPU      0.00s WALL (       6 calls)
     newd         :      0.00s CPU      0.00s WALL (       3 calls)
     PAW_pot      :      0.32s CPU      0.30s WALL (       3 calls)

     Called by c_bands:
     init_us_2    :      0.46s CPU      0.42s WALL (   14058 calls)
     init_us_2:cp :      0.43s CPU      0.40s WALL (   14058 calls)
     cegterg      :     28.66s CPU     24.30s WALL (    1107 calls)

     Called by sum_band:

     Called by *egterg:
     cdiaghg      :     11.96s CPU      9.88s WALL (   16313 calls)
     cegterg:over :      1.34s CPU      1.14s WALL (   15233 calls)
     cegterg:upda :      1.06s CPU      0.81s WALL (   15233 calls)
     cegterg:last :      0.73s CPU      0.55s WALL (    3863 calls)
     h_psi        :     44.76s CPU     41.19s WALL (   90636 calls)
     s_psi        :      9.67s CPU      8.87s WALL (  173770 calls)
     g_psi        :      0.14s CPU      0.11s WALL (   15233 calls)

     Called by h_psi:
     h_psi:calbec :      2.52s CPU      2.37s WALL (   90636 calls)
     vloc_psi     :     36.78s CPU     33.75s WALL (   90636 calls)
     add_vuspsi   :      4.72s CPU      4.42s WALL (   90636 calls)

     General routines
     calbec       :      6.43s CPU      5.90s WALL (  213412 calls)
     fft          :      0.02s CPU      0.02s WALL (     966 calls)
     ffts         :      0.17s CPU      0.17s WALL (    9180 calls)
     fftw         :     36.08s CPU     33.75s WALL ( 3776636 calls)
     davcio       :      1.42s CPU      1.38s WALL (   54476 calls)

     Parallel routines

     PAW routines
     PAW_pot      :      0.32s CPU      0.30s WALL (       3 calls)

     PHONON       :   3m31.33s CPU   3m10.42s WALL

     INITIALIZATION: 
     phq_setup    :      0.00s CPU      0.01s WALL (       3 calls)
     phq_init     :     73.24s CPU     63.72s WALL (       3 calls)

     phq_init     :     73.24s CPU     63.72s WALL (       3 calls)
     set_drhoc    :      0.01s CPU      0.00s WALL (       9 calls)
     init_vloc    :      0.00s CPU      0.00s WALL (       3 calls)
     init_us_1    :      0.09s CPU      0.08s WALL (       3 calls)
     init_us_2    :      0.46s CPU      0.42s WALL (   14058 calls)
     newd         :      0.00s CPU      0.00s WALL (       3 calls)
     dvanqq       :      0.02s CPU      0.02s WALL (       3 calls)
     drho         :     69.62s CPU     60.61s WALL (       3 calls)
     drhous       :     67.59s CPU     58.66s WALL (       3 calls)
     nldyntot     :      1.39s CPU      1.36s WALL (       3 calls)

     DYNAMICAL MATRIX:
     dynmat0      :      3.37s CPU      2.92s WALL (       3 calls)
     dynmat_us    :      3.37s CPU      2.92s WALL (       3 calls)
     addusdynmat  :      0.00s CPU      0.00s WALL (       3 calls)
     d2ionq       :      0.00s CPU      0.00s WALL (       3 calls)
     dynmatcc     :      0.00s CPU      0.00s WALL (       3 calls)
     phqscf       :    106.77s CPU     99.84s WALL (       3 calls)
     dynmatrix    :      0.00s CPU      0.00s WALL (       3 calls)

     phqscf       :    106.77s CPU     99.84s WALL (       3 calls)
     solve_linter :    102.57s CPU     96.33s WALL (       9 calls)
     sth_kernel   :     57.59s CPU     54.09s WALL (      23 calls)
     h_prec       :      0.09s CPU      0.09s WALL (    5782 calls)
     apply_dpot_b :      2.36s CPU      2.43s WALL (    5826 calls)
     ortho        :      1.97s CPU      1.87s WALL (    9918 calls)
     cgsolve      :     45.45s CPU     42.08s WALL (    9918 calls)
     incdrhoscf   :      4.81s CPU      4.69s WALL (    9918 calls)
                                        0.00s GPU  (    9918 calls)
     addusddens   :      0.06s CPU      0.04s WALL (      32 calls)
     dv_of_drho   :      0.01s CPU      0.01s WALL (      41 calls)
     mix_pot      :      0.00s CPU      0.00s WALL (      23 calls)
     ef_shift     :      0.00s CPU      0.00s WALL (       3 calls)
     ef_shift_wfc :      0.01s CPU      0.03s WALL (       2 calls)
     localdos     :      0.09s CPU      0.09s WALL (       2 calls)
     drhodv       :      4.20s CPU      3.51s WALL (       9 calls)
     psymdvscf    :      0.04s CPU      0.04s WALL (      23 calls)
     newdq        :      0.03s CPU      0.03s WALL (      23 calls)
     adddvscf     :      1.64s CPU      1.69s WALL (    5826 calls)
     drhodvus     :      0.00s CPU      0.00s WALL (       9 calls)

     dvqpsi_us    :     26.34s CPU     23.32s WALL (    4092 calls)
                                        0.00s GPU  (    4092 calls)
     dvqpsi_us_on :     23.23s CPU     20.15s WALL (    4092 calls)

     add_vuspsi   :      4.72s CPU      4.42s WALL (   90636 calls)

     drhodvus     :      0.00s CPU      0.00s WALL (       9 calls)

      General routines
     calbec       :      6.43s CPU      5.90s WALL (  213412 calls)
     fft          :      0.02s CPU      0.02s WALL (     966 calls)
     ffts         :      0.17s CPU      0.17s WALL (    9180 calls)
     fftw         :     36.08s CPU     33.75s WALL ( 3776636 calls)
     davcio       :      1.42s CPU      1.38s WALL (   54476 calls)
     write_rec    :      0.01s CPU      0.02s WALL (      32 calls)

      Additional routines
     ch_psi       :     44.22s CPU     40.96s WALL (   73216 calls)
     last         :      8.05s CPU      7.29s WALL (   73216 calls)
     Hesh         :      0.36s CPU      0.33s WALL (   73216 calls)
     Hesh:noncoli :      0.15s CPU      0.14s WALL (   73216 calls)
     ch_psi_all_k :      7.49s CPU      6.77s WALL (   73216 calls)
                                        0.00s GPU  (   73216 calls)
     ch_psi_calbe :      1.83s CPU      1.65s WALL (   73216 calls)
                                        0.00s GPU  (   73216 calls)
     h_psi_bgrp   :     44.92s CPU     41.34s WALL (   90636 calls)
     h_psi        :     44.76s CPU     41.19s WALL (   90636 calls)
     h_psi:pot    :     44.35s CPU     40.83s WALL (   90636 calls)
     h_psi:calbec :      2.52s CPU      2.37s WALL (   90636 calls)
     s_psi_bgrp   :     10.13s CPU      9.28s WALL (  173770 calls)
     s_psi        :      9.67s CPU      8.87s WALL (  173770 calls)


     PHONON       :   3m31.33s CPU   3m10.42s WALL


   This run was terminated on:  14:18:42  29Sep2025            

=------------------------------------------------------------------------------=
   JOB DONE.
=------------------------------------------------------------------------------=
