 running    1 mpi-ranks, on    1 nodes
 distrk:  each k-point on    1 cores,    1 groups
 distr:  one band on    1 cores,    1 groups
 vasp.6.4.1 05Apr23 (build Apr 28 2025 17:05:42) complex                         
 POSCAR found type information on POSCAR Si
 POSCAR found :  1 types and       2 ions
 scaLAPACK will be used
 LDA part: xc-table for Pade appr. of Perdew
 found WAVECAR, reading the header
  number of k-points has changed, file:     3 present:   140
  trying to continue reading WAVECAR, but it might fail
 WARNING: stress and forces are not correct
 POSCAR, INCAR and KPOINTS ok, starting setup
 FFT: planning ... GRIDC
 FFT: planning ... GRID_SOFT
 FFT: planning ... GRID
 reading WAVECAR
 the WAVECAR file was read successfully
 reading imaginary part of occupancies ...
 charge-density read from file: Si                                      
 entering main loop
       N       E                     dE             d eps       ncg     rms          rms(c)
DAV:   1    -0.756529318237E+01   -0.75653E+01   -0.52732E+02  3192   0.833E+01
DAV:   2    -0.791839265808E+01   -0.35310E+00   -0.35310E+00  2896   0.131E+01
DAV:   3    -0.791923817581E+01   -0.84552E-03   -0.84552E-03  3448   0.408E-01
DAV:   4    -0.791923844509E+01   -0.26927E-06   -0.26927E-06  2800   0.609E-03
   1 F= -.79192384E+01 E0= -.79192384E+01  d E =-.222010E-15
