 vasp.6.4.1 05Apr23 (build Apr 28 2025 17:05:42) complex                         
 executed on             LinuxGNU date 2025.05.12  15:46:08
 running    1 mpi-ranks, on    1 nodes
 distrk:  each k-point on    1 cores,    1 groups
 distr:  one band on NCORE=   1 cores,    1 groups


--------------------------------------------------------------------------------------------------------


 INCAR:
   SYSTEM = Si
   PREC = Accurate
   ENCUT = 100
   EDIFF = 1.0e-05
   ISMEAR = 0
   SIGMA = 0.02
   LSORBIT = FALSER
   ISTART = 1
   ICHARG = 11
   LORBIT = 11
   LWAVE = .FALSE.
   LCHARG = .FALSE.

 POTCAR:    PAW_PBE Si 05Jan2001                  
 POTCAR:    PAW_PBE Si 05Jan2001                  
   SHA256 =  79d9987ad8750f624c4d6acb2a16d13abf6a777132adc04dc6c8399be72b42bb Si/POTCAR             
   COPYR  = (c) Copyright 05Jan2001 Georg Kresse                                                    
   COPYR  = This file is part of the software VASP. Any use, copying, and all other rights are regul
   COPYR  = If you do not have a valid VASP license, you may not use, copy or distribute this file. 
   VRHFIN =Si: s2p2                                                                                 
   LEXCH  = PE                                                                                      
   EATOM  =   103.0669 eV,    7.5752 Ry                                                             
                                                                                                    
   TITEL  = PAW_PBE Si 05Jan2001                                                                    
   LULTRA =        F    use ultrasoft PP ?                                                          
   IUNSCR =        1    unscreen: 0-lin 1-nonlin 2-no                                               
   RPACOR =    1.500    partial core radius                                                         
   POMASS =   28.085; ZVAL   =    4.000    mass and valenz                                          
   RCORE  =    1.900    outmost cutoff radius                                                       
   RWIGS  =    2.480; RWIGS  =    1.312    wigner-seitz radius (au A)                               
   ENMAX  =  245.345; ENMIN  =  184.009 eV                                                          
   ICORE  =        2    local potential                                                             
   LCOR   =        T    correct aug charges                                                         
   LPAW   =        T    paw PP                                                                      
   EAUG   =  322.069                                                                                
   DEXC   =    0.000                                                                                
   RMAX   =    1.950    core radius for proj-oper                                                   
   RAUG   =    1.300    factor for augmentation sphere                                              
   RDEP   =    1.993    radius for radial grids                                                     
   RDEPT  =    1.837    core radius for aug-charge                                                  
                                                                                                    
   Atomic configuration                                                                             
    6 entries                                                                                       
     n  l   j            E        occ.                                                              
     1  0  0.50     -1785.8828   2.0000                                                             
     2  0  0.50      -139.4969   2.0000                                                             
     2  1  1.50       -95.5546   6.0000                                                             
     3  0  0.50       -10.8127   2.0000                                                             
     3  1  0.50        -4.0811   2.0000                                                             
     3  2  1.50        -4.0817   0.0000                                                             
   Description                                                                                      
     l       E           TYP  RCUT    TYP  RCUT                                                     
     0    -10.8127223     23  1.900                                                                 
     0     -7.6451159     23  1.900                                                                 
     1     -4.0811372     23  1.900                                                                 
     1      2.4879257     23  1.900                                                                 
     2     -4.0817478      7  1.900                                                                 
  local pseudopotential read in
  partial core-charges read in
  partial kinetic energy density read in
  atomic valenz-charges read in
  non local Contribution for L=           0  read in
    real space projection operators read in
  non local Contribution for L=           0  read in
    real space projection operators read in
  non local Contribution for L=           1  read in
    real space projection operators read in
  non local Contribution for L=           1  read in
    real space projection operators read in
    PAW grid and wavefunctions read in

   number of l-projection  operators is LMAX  =           4
   number of lm-projection operators is LMMAX =           8

  PAW_PBE Si 05Jan2001                  :
 energy of atom  1       EATOM= -103.0669
 kinetic energy error for atom=    0.1213 (will be added to EATOM!!)


 POSCAR: Si
  positions in cartesian coordinates
  No initial velocities read in
 exchange correlation table for  LEXCH =        8
   RHO(1)=    0.500       N(1)  =     2000
   RHO(2)=  100.500       N(2)  =     4000



--------------------------------------------------------------------------------------------------------


 ion  position               nearest neighbor table
   1  0.000  0.000  0.000-   2 2.37   2 2.37   2 2.37   2 2.37
   2  0.250  0.250  0.250-   1 2.37   1 2.37   1 2.37   1 2.37

  LATTYP: Found a face centered cubic cell.
 ALAT       =     5.4687279960
  
  Lattice vectors:
  
 A1 = (   0.0000000000,   2.7343639980,   2.7343639980)
 A2 = (   2.7343639980,   0.0000000000,   2.7343639980)
 A3 = (   2.7343639980,   2.7343639980,   0.0000000000)


Analysis of symmetry for initial positions (statically):
=====================================================================
 Subroutine PRICEL returns:
 Original cell was already a primitive cell.
 

 Routine SETGRP: Setting up the symmetry group for a 
 face centered cubic supercell.


 Subroutine GETGRP returns: Found 48 space group operations
 (whereof 24 operations were pure point group operations)
 out of a pool of 48 trial point group operations.


The static configuration has the point symmetry T_d .
 The point group associated with its full space group is O_h .


Analysis of symmetry for dynamics (positions and initial velocities):
=====================================================================
 Subroutine PRICEL returns:
 Original cell was already a primitive cell.
 

 Routine SETGRP: Setting up the symmetry group for a 
 face centered cubic supercell.


 Subroutine GETGRP returns: Found 48 space group operations
 (whereof 24 operations were pure point group operations)
 out of a pool of 48 trial point group operations.


The dynamic configuration has the point symmetry T_d .
 The point group associated with its full space group is O_h .


 Subroutine INISYM returns: Found 48 space group operations
 (whereof 24 operations are pure point group operations),
 and found     1 'primitive' translations


----------------------------------------------------------------------------------------

                                     Primitive cell                                     

  volume of cell :      40.8883

  direct lattice vectors                    reciprocal lattice vectors
     0.000000000  2.734363998  2.734363998    -0.182857879  0.182857879  0.182857879
     2.734363998  0.000000000  2.734363998     0.182857879 -0.182857879  0.182857879
     2.734363998  2.734363998  0.000000000     0.182857879  0.182857879 -0.182857879

  length of vectors
     3.866974650  3.866974650  3.866974650     0.316719136  0.316719136  0.316719136

  position of ions in fractional coordinates (direct lattice)
     0.000000000  0.000000000  0.000000000
     0.250000000  0.250000000  0.250000000

  ion indices of the primitive-cell ions
   primitive index   ion index
                 1           1
                 2           2

----------------------------------------------------------------------------------------



 KPOINTS: Cubic                                   

Interpolating k-points between supplied coordinates.

 Line segments in fractional coordinates (reciprocal lattice):
    0.500000  0.000000  0.500000  ...  0.500000  0.250000  0.750000
    0.500000  0.250000  0.750000  ...  0.500000  0.500000  0.500000
    0.500000  0.500000  0.500000  ...  0.000000  0.000000  0.000000
    0.000000  0.000000  0.000000  ...  0.500000  0.000000  0.500000
    0.500000  0.500000  1.000000  ...  0.375000  0.375000  0.750000
    0.375000  0.375000  0.750000  ...  0.125000  0.125000  0.250000
    0.125000  0.125000  0.250000  ...  0.000000  0.000000  0.000000

 Generated    20 points on each line segment, for a total of    140 k-points:

 Following reciprocal coordinates:
            Coordinates               Weight
  0.500000  0.000000  0.500000      0.007143
  0.500000  0.013158  0.513158      0.007143
  0.500000  0.026316  0.526316      0.007143
  0.500000  0.039474  0.539474      0.007143
  0.500000  0.052632  0.552632      0.007143
  0.500000  0.065789  0.565789      0.007143
  0.500000  0.078947  0.578947      0.007143
  0.500000  0.092105  0.592105      0.007143
  0.500000  0.105263  0.605263      0.007143
  0.500000  0.118421  0.618421      0.007143
  0.500000  0.131579  0.631579      0.007143
  0.500000  0.144737  0.644737      0.007143
  0.500000  0.157895  0.657895      0.007143
  0.500000  0.171053  0.671053      0.007143
  0.500000  0.184211  0.684211      0.007143
  0.500000  0.197368  0.697368      0.007143
  0.500000  0.210526  0.710526      0.007143
  0.500000  0.223684  0.723684      0.007143
  0.500000  0.236842  0.736842      0.007143
  0.500000  0.250000  0.750000      0.007143
  0.500000  0.250000  0.750000      0.007143
  0.500000  0.263158  0.736842      0.007143
  0.500000  0.276316  0.723684      0.007143
  0.500000  0.289474  0.710526      0.007143
  0.500000  0.302632  0.697368      0.007143
  0.500000  0.315789  0.684211      0.007143
  0.500000  0.328947  0.671053      0.007143
  0.500000  0.342105  0.657895      0.007143
  0.500000  0.355263  0.644737      0.007143
  0.500000  0.368421  0.631579      0.007143
  0.500000  0.381579  0.618421      0.007143
  0.500000  0.394737  0.605263      0.007143
  0.500000  0.407895  0.592105      0.007143
  0.500000  0.421053  0.578947      0.007143
  0.500000  0.434211  0.565789      0.007143
  0.500000  0.447368  0.552632      0.007143
  0.500000  0.460526  0.539474      0.007143
  0.500000  0.473684  0.526316      0.007143
  0.500000  0.486842  0.513158      0.007143
  0.500000  0.500000  0.500000      0.007143
  0.500000  0.500000  0.500000      0.007143
  0.473684  0.473684  0.473684      0.007143
  0.447368  0.447368  0.447368      0.007143
  0.421053  0.421053  0.421053      0.007143
  0.394737  0.394737  0.394737      0.007143
  0.368421  0.368421  0.368421      0.007143
  0.342105  0.342105  0.342105      0.007143
  0.315789  0.315789  0.315789      0.007143
  0.289474  0.289474  0.289474      0.007143
  0.263158  0.263158  0.263158      0.007143
  0.236842  0.236842  0.236842      0.007143
  0.210526  0.210526  0.210526      0.007143
  0.184211  0.184211  0.184211      0.007143
  0.157895  0.157895  0.157895      0.007143
  0.131579  0.131579  0.131579      0.007143
  0.105263  0.105263  0.105263      0.007143
  0.078947  0.078947  0.078947      0.007143
  0.052632  0.052632  0.052632      0.007143
  0.026316  0.026316  0.026316      0.007143
  0.000000  0.000000  0.000000      0.007143
  0.000000  0.000000  0.000000      0.007143
  0.026316  0.000000  0.026316      0.007143
  0.052632  0.000000  0.052632      0.007143
  0.078947  0.000000  0.078947      0.007143
  0.105263  0.000000  0.105263      0.007143
  0.131579  0.000000  0.131579      0.007143
  0.157895  0.000000  0.157895      0.007143
  0.184211  0.000000  0.184211      0.007143
  0.210526  0.000000  0.210526      0.007143
  0.236842  0.000000  0.236842      0.007143
  0.263158  0.000000  0.263158      0.007143
  0.289474  0.000000  0.289474      0.007143
  0.315789  0.000000  0.315789      0.007143
  0.342105  0.000000  0.342105      0.007143
  0.368421  0.000000  0.368421      0.007143
  0.394737  0.000000  0.394737      0.007143
  0.421053  0.000000  0.421053      0.007143
  0.447368  0.000000  0.447368      0.007143
  0.473684  0.000000  0.473684      0.007143
  0.500000  0.000000  0.500000      0.007143
  0.500000  0.500000  1.000000      0.007143
  0.493421  0.493421  0.986842      0.007143
  0.486842  0.486842  0.973684      0.007143
  0.480263  0.480263  0.960526      0.007143
  0.473684  0.473684  0.947368      0.007143
  0.467105  0.467105  0.934211      0.007143
  0.460526  0.460526  0.921053      0.007143
  0.453947  0.453947  0.907895      0.007143
  0.447368  0.447368  0.894737      0.007143
  0.440789  0.440789  0.881579      0.007143
  0.434211  0.434211  0.868421      0.007143
  0.427632  0.427632  0.855263      0.007143
  0.421053  0.421053  0.842105      0.007143
  0.414474  0.414474  0.828947      0.007143
  0.407895  0.407895  0.815789      0.007143
  0.401316  0.401316  0.802632      0.007143
  0.394737  0.394737  0.789474      0.007143
  0.388158  0.388158  0.776316      0.007143
  0.381579  0.381579  0.763158      0.007143
  0.375000  0.375000  0.750000      0.007143
  0.375000  0.375000  0.750000      0.007143
  0.361842  0.361842  0.723684      0.007143
  0.348684  0.348684  0.697368      0.007143
  0.335526  0.335526  0.671053      0.007143
  0.322368  0.322368  0.644737      0.007143
  0.309211  0.309211  0.618421      0.007143
  0.296053  0.296053  0.592105      0.007143
  0.282895  0.282895  0.565789      0.007143
  0.269737  0.269737  0.539474      0.007143
  0.256579  0.256579  0.513158      0.007143
  0.243421  0.243421  0.486842      0.007143
  0.230263  0.230263  0.460526      0.007143
  0.217105  0.217105  0.434211      0.007143
  0.203947  0.203947  0.407895      0.007143
  0.190789  0.190789  0.381579      0.007143
  0.177632  0.177632  0.355263      0.007143
  0.164474  0.164474  0.328947      0.007143
  0.151316  0.151316  0.302632      0.007143
  0.138158  0.138158  0.276316      0.007143
  0.125000  0.125000  0.250000      0.007143
  0.125000  0.125000  0.250000      0.007143
  0.118421  0.118421  0.236842      0.007143
  0.111842  0.111842  0.223684      0.007143
  0.105263  0.105263  0.210526      0.007143
  0.098684  0.098684  0.197368      0.007143
  0.092105  0.092105  0.184211      0.007143
  0.085526  0.085526  0.171053      0.007143
  0.078947  0.078947  0.157895      0.007143
  0.072368  0.072368  0.144737      0.007143
  0.065789  0.065789  0.131579      0.007143
  0.059211  0.059211  0.118421      0.007143
  0.052632  0.052632  0.105263      0.007143
  0.046053  0.046053  0.092105      0.007143
  0.039474  0.039474  0.078947      0.007143
  0.032895  0.032895  0.065789      0.007143
  0.026316  0.026316  0.052632      0.007143
  0.019737  0.019737  0.039474      0.007143
  0.013158  0.013158  0.026316      0.007143
  0.006579  0.006579  0.013158      0.007143
  0.000000  0.000000  0.000000      0.007143

 Following cartesian coordinates:
            Coordinates               Weight
  0.000000  0.182858  0.000000      0.007143
  0.004812  0.182858 -0.000000      0.007143
  0.009624  0.182858  0.000000      0.007143
  0.014436  0.182858 -0.000000      0.007143
  0.019248  0.182858  0.000000      0.007143
  0.024060  0.182858  0.000000      0.007143
  0.028872  0.182858 -0.000000      0.007143
  0.033684  0.182858  0.000000      0.007143
  0.038496  0.182858 -0.000000      0.007143
  0.043308  0.182858 -0.000000      0.007143
  0.048120  0.182858  0.000000      0.007143
  0.052933  0.182858 -0.000000      0.007143
  0.057745  0.182858 -0.000000      0.007143
  0.062557  0.182858 -0.000000      0.007143
  0.067369  0.182858  0.000000      0.007143
  0.072181  0.182858  0.000000      0.007143
  0.076993  0.182858  0.000000      0.007143
  0.081805  0.182858 -0.000000      0.007143
  0.086617  0.182858  0.000000      0.007143
  0.091429  0.182858 -0.000000      0.007143
  0.091429  0.182858 -0.000000      0.007143
  0.091429  0.178046  0.004812      0.007143
  0.091429  0.173234  0.009624      0.007143
  0.091429  0.168422  0.014436      0.007143
  0.091429  0.163610  0.019248      0.007143
  0.091429  0.158798  0.024060      0.007143
  0.091429  0.153986  0.028872      0.007143
  0.091429  0.149174  0.033684      0.007143
  0.091429  0.144361  0.038496      0.007143
  0.091429  0.139549  0.043308      0.007143
  0.091429  0.134737  0.048120      0.007143
  0.091429  0.129925  0.052933      0.007143
  0.091429  0.125113  0.057745      0.007143
  0.091429  0.120301  0.062557      0.007143
  0.091429  0.115489  0.067369      0.007143
  0.091429  0.110677  0.072181      0.007143
  0.091429  0.105865  0.076993      0.007143
  0.091429  0.101053  0.081805      0.007143
  0.091429  0.096241  0.086617      0.007143
  0.091429  0.091429  0.091429      0.007143
  0.091429  0.091429  0.091429      0.007143
  0.086617  0.086617  0.086617      0.007143
  0.081805  0.081805  0.081805      0.007143
  0.076993  0.076993  0.076993      0.007143
  0.072181  0.072181  0.072181      0.007143
  0.067369  0.067369  0.067369      0.007143
  0.062557  0.062557  0.062557      0.007143
  0.057745  0.057745  0.057745      0.007143
  0.052933  0.052933  0.052933      0.007143
  0.048120  0.048120  0.048120      0.007143
  0.043308  0.043308  0.043308      0.007143
  0.038496  0.038496  0.038496      0.007143
  0.033684  0.033684  0.033684      0.007143
  0.028872  0.028872  0.028872      0.007143
  0.024060  0.024060  0.024060      0.007143
  0.019248  0.019248  0.019248      0.007143
  0.014436  0.014436  0.014436      0.007143
  0.009624  0.009624  0.009624      0.007143
  0.004812  0.004812  0.004812      0.007143
  0.000000  0.000000  0.000000      0.007143
  0.000000  0.000000  0.000000      0.007143
 -0.000000  0.009624  0.000000      0.007143
 -0.000000  0.019248  0.000000      0.007143
 -0.000000  0.028872  0.000000      0.007143
 -0.000000  0.038496  0.000000      0.007143
 -0.000000  0.048120  0.000000      0.007143
 -0.000000  0.057745  0.000000      0.007143
  0.000000  0.067369 -0.000000      0.007143
 -0.000000  0.076993  0.000000      0.007143
 -0.000000  0.086617  0.000000      0.007143
 -0.000000  0.096241  0.000000      0.007143
  0.000000  0.105865 -0.000000      0.007143
 -0.000000  0.115489  0.000000      0.007143
  0.000000  0.125113 -0.000000      0.007143
  0.000000  0.134737 -0.000000      0.007143
 -0.000000  0.144361  0.000000      0.007143
 -0.000000  0.153986  0.000000      0.007143
  0.000000  0.163610 -0.000000      0.007143
 -0.000000  0.173234  0.000000      0.007143
  0.000000  0.182858  0.000000      0.007143
  0.182858  0.182858  0.000000      0.007143
  0.180452  0.180452 -0.000000      0.007143
  0.178046  0.178046 -0.000000      0.007143
  0.175640  0.175640 -0.000000      0.007143
  0.173234  0.173234 -0.000000      0.007143
  0.170828  0.170828  0.000000      0.007143
  0.168422  0.168422  0.000000      0.007143
  0.166016  0.166016  0.000000      0.007143
  0.163610  0.163610  0.000000      0.007143
  0.161204  0.161204 -0.000000      0.007143
  0.158798  0.158798 -0.000000      0.007143
  0.156392  0.156392 -0.000000      0.007143
  0.153986  0.153986  0.000000      0.007143
  0.151580  0.151580 -0.000000      0.007143
  0.149174  0.149174  0.000000      0.007143
  0.146768  0.146768  0.000000      0.007143
  0.144361  0.144361  0.000000      0.007143
  0.141955  0.141955 -0.000000      0.007143
  0.139549  0.139549 -0.000000      0.007143
  0.137143  0.137143 -0.000000      0.007143
  0.137143  0.137143 -0.000000      0.007143
  0.132331  0.132331 -0.000000      0.007143
  0.127519  0.127519  0.000000      0.007143
  0.122707  0.122707 -0.000000      0.007143
  0.117895  0.117895 -0.000000      0.007143
  0.113083  0.113083  0.000000      0.007143
  0.108271  0.108271  0.000000      0.007143
  0.103459  0.103459  0.000000      0.007143
  0.098647  0.098647 -0.000000      0.007143
  0.093835  0.093835  0.000000      0.007143
  0.089023  0.089023 -0.000000      0.007143
  0.084211  0.084211  0.000000      0.007143
  0.079399  0.079399 -0.000000      0.007143
  0.074587  0.074587 -0.000000      0.007143
  0.069775  0.069775 -0.000000      0.007143
  0.064963  0.064963  0.000000      0.007143
  0.060151  0.060151  0.000000      0.007143
  0.055339  0.055339  0.000000      0.007143
  0.050527  0.050527  0.000000      0.007143
  0.045714  0.045714  0.000000      0.007143
  0.045714  0.045714  0.000000      0.007143
  0.043308  0.043308 -0.000000      0.007143
  0.040902  0.040902  0.000000      0.007143
  0.038496  0.038496  0.000000      0.007143
  0.036090  0.036090  0.000000      0.007143
  0.033684  0.033684 -0.000000      0.007143
  0.031278  0.031278  0.000000      0.007143
  0.028872  0.028872  0.000000      0.007143
  0.026466  0.026466 -0.000000      0.007143
  0.024060  0.024060 -0.000000      0.007143
  0.021654  0.021654 -0.000000      0.007143
  0.019248  0.019248 -0.000000      0.007143
  0.016842  0.016842 -0.000000      0.007143
  0.014436  0.014436 -0.000000      0.007143
  0.012030  0.012030 -0.000000      0.007143
  0.009624  0.009624  0.000000      0.007143
  0.007218  0.007218  0.000000      0.007143
  0.004812  0.004812 -0.000000      0.007143
  0.002406  0.002406 -0.000000      0.007143
  0.000000  0.000000  0.000000      0.007143



--------------------------------------------------------------------------------------------------------




 Dimension of arrays:
   k-points           NKPTS =    140   k-points in BZ     NKDIM =    140   number of bands    NBANDS=      8
   number of dos      NEDOS =    301   number of ions     NIONS =      2
   non local maximal  LDIM  =      4   non local SUM 2l+1 LMDIM =      8
   total plane-waves  NPLWV =   2744
   max r-space proj   IRMAX =      1   max aug-charges    IRDMAX=   2443
   dimension x,y,z NGX =    14 NGY =   14 NGZ =   14
   dimension x,y,z NGXF=    28 NGYF=   28 NGZF=   28
   support grid    NGXF=    28 NGYF=   28 NGZF=   28
   ions per type =               2
   NGX,Y,Z   is equivalent  to a cutoff of   6.02,  6.02,  6.02 a.u.
   NGXF,Y,Z  is equivalent  to a cutoff of  12.04, 12.04, 12.04 a.u.

 SYSTEM =  Si                                      
 POSCAR =  Si                                      

 Startparameter for this run:
   NWRITE =      2    write-flag & timer
   PREC   = accura    normal or accurate (medium, high low for compatibility)
   ISTART =      1    job   : 0-new  1-cont  2-samecut
   ICHARG =     11    charge: 1-file 2-atom 10-const
   ISPIN  =      1    spin polarized calculation?
   LNONCOLLINEAR =      F non collinear calculations
   LSORBIT =      F    spin-orbit coupling
   INIWAV =      1    electr: 0-lowe 1-rand  2-diag
   LASPH  =      F    aspherical Exc in radial PAW
 Electronic Relaxation 1
   ENCUT  =  100.0 eV   7.35 Ry    2.71 a.u.   3.15  3.15  3.15*2*pi/ulx,y,z
   ENINI  =  100.0     initial cutoff
   ENAUG  =  322.1 eV  augmentation charge cutoff
   NELM   =     60;   NELMIN=  2; NELMDL=  0     # of ELM steps 
   EDIFF  = 0.1E-04   stopping-criterion for ELM
   LREAL  =      F    real-space projection
   NLSPLINE    = F    spline interpolate recip. space projectors
   LCOMPAT=      F    compatible to vasp.4.4
   GGA_COMPAT  = T    GGA compatible to vasp.4.4-vasp.4.6
   LMAXPAW     = -100 max onsite density
   LMAXMIX     =    2 max onsite mixed and CHGCAR
   VOSKOWN=      0    Vosko Wilk Nusair interpolation
   ROPT   =    0.00000
 Ionic relaxation
   EDIFFG = 0.1E-03   stopping-criterion for IOM
   NSW    =      0    number of steps for IOM
   NBLOCK =      1;   KBLOCK =      1    inner block; outer block 
   IBRION =     -1    ionic relax: 0-MD 1-quasi-New 2-CG
   NFREE  =      0    steps in history (QN), initial steepest desc. (CG)
   ISIF   =      2    stress and relaxation
   IWAVPR =     10    prediction:  0-non 1-charg 2-wave 3-comb
   ISYM   =      2    0-nonsym 1-usesym 2-fastsym
   LCORR  =      T    Harris-Foulkes like correction to forces

   POTIM  = 0.5000    time-step for ionic-motion
   TEIN   =    0.0    initial temperature
   TEBEG  =    0.0;   TEEND  =   0.0 temperature during run
   SMASS  =  -3.00    Nose mass-parameter (am)
   estimated Nose-frequenzy (Omega)   =  0.10E-29 period in steps = 0.13E+47 mass=  -0.342E-27a.u.
   SCALEE = 1.0000    scale energy and forces
   NPACO  =    256;   APACO  = 10.0  distance and # of slots for P.C.
   PSTRESS=    0.0 pullay stress

  Mass of Ions in am
   POMASS =  28.09
  Ionic Valenz
   ZVAL   =   4.00
  Atomic Wigner-Seitz radii
   RWIGS  =  -1.00
  virtual crystal weights 
   VCA    =   1.00
   NELECT =       8.0000    total number of electrons
   NUPDOWN=      -1.0000    fix difference up-down

 DOS related values:
   EMIN   =  10.00;   EMAX   =-10.00  energy-range for DOS
   EFERMI =   0.00;   METHOD = LEGACY      
   ISMEAR =     0;   SIGMA  =   0.02  broadening in eV -4-tet -1-fermi 0-gaus

 Electronic relaxation 2 (details)
   IALGO  =     38    algorithm
   LDIAG  =      T    sub-space diagonalisation (order eigenvalues)
   LSUBROT=      F    optimize rotation matrix (better conditioning)
   TURBO    =      0    0=normal 1=particle mesh
   IRESTART =      0    0=no restart 2=restart with 2 vectors
   NREBOOT  =      0    no. of reboots
   NMIN     =      0    reboot dimension
   EREF     =   0.00    reference energy to select bands
   IMIX   =      4    mixing-type and parameters
     AMIX     =   0.40;   BMIX     =  1.00
     AMIX_MAG =   1.60;   BMIX_MAG =  1.00
     AMIN     =   0.10
     WC   =   100.;   INIMIX=   1;  MIXPRE=   1;  MAXMIX= -45

 Intra band minimization:
   WEIMIN = 0.0000     energy-eigenvalue tresh-hold
   EBREAK =  0.31E-06  absolut break condition
   DEPER  =   0.30     relativ break condition  

   TIME   =   0.40     timestep for ELM

  volume/ion in A,a.u.               =      20.44       137.96
  Fermi-wavevector in a.u.,A,eV,Ry     =   0.950397  1.795990 12.289529  0.903255
  Thomas-Fermi vector in A             =   2.078770

 Write flags
   LWAVE        =      F    write WAVECAR
   LDOWNSAMPLE  =      F    k-point downsampling of WAVECAR
   LCHARG       =      F    write CHGCAR
   LVTOT        =      F    write LOCPOT, total local potential
   LVHAR        =      F    write LOCPOT, Hartree potential only
   LELF         =      F    write electronic localiz. function (ELF)
   LORBIT       =     11    0 simple, 1 ext, 2 COOP (PROOUT), +10 PAW based schemes


 Dipole corrections
   LMONO  =      F    monopole corrections only (constant potential shift)
   LDIPOL =      F    correct potential (dipole corrections)
   IDIPOL =      0    1-x, 2-y, 3-z, 4-all directions 
   EPSILON=  1.0000000 bulk dielectric constant

 Exchange correlation treatment:
   GGA     =    --    GGA type
   LEXCH   =     8    internal setting for exchange type
   LIBXC   =     F    Libxc                    
   VOSKOWN =     0    Vosko Wilk Nusair interpolation
   LHFCALC =     F    Hartree Fock is set to
   LHFONE  =     F    Hartree Fock one center treatment
   AEXX    =    0.0000 exact exchange contribution

 Linear response parameters
   LEPSILON=     F    determine dielectric tensor
   LRPA    =     F    only Hartree local field effects (RPA)
   LNABLA  =     F    use nabla operator in PAW spheres
   LVEL    =     F    velocity operator in full k-point grid
   CSHIFT  =0.1000    complex shift for real part using Kramers Kronig
   OMEGAMAX=  -1.0    maximum frequency
   DEG_THRESHOLD= 0.2000000E-02 threshold for treating states as degnerate
   RTIME   =   -0.100 relaxation time in fs
  (WPLASMAI=    0.000 imaginary part of plasma frequency in eV, 0.658/RTIME)
   DFIELD  = 0.0000000 0.0000000 0.0000000 field for delta impulse in time

  Optional k-point grid parameters
   LKPOINTS_OPT  =     F    use optional k-point grid
   KPOINTS_OPT_MODE=     1    mode for optional k-point grid

 Orbital magnetization related:
   ORBITALMAG=     F  switch on orbital magnetization
   LCHIMAG   =     F  perturbation theory with respect to B field
   DQ        =  0.001000  dq finite difference perturbation B field
   LLRAUG    =     F  two centre corrections for induced B field
   LBONE     =     F  B-component reconstruction in AE one-centre
   LVGVCALC  =     T  calculate vGv susceptibility
   LVGVAPPL  =     F  apply vGv susceptibility instead of pGv for G=0

 Random number generation:
   RANDOM_GENERATOR = DEFAULT
   PCG_SEED         = not used


--------------------------------------------------------------------------------------------------------


 Static calculation
 charge density and potential remain constant during run
 non-spin polarized calculation
 Variant of blocked Davidson
 Davidson routine will perform the subspace rotation
 perform sub-space diagonalisation
    after iterative eigenvector-optimisation
 no mixing
 using additional bands            4
 reciprocal scheme for non local part
 use partial core corrections
 calculate Harris-corrections to forces   (improved forces if not selfconsistent)
 use gradient corrections 
 WARNING: stress and forces are not correct
  (second derivative of E(xc) not defined)
 use of overlap-Matrix (Vanderbilt PP)
 Gauss-broadening in eV      SIGMA  =   0.02


--------------------------------------------------------------------------------------------------------


  energy-cutoff  :      100.00
  volume of cell :       40.89
      direct lattice vectors                 reciprocal lattice vectors
     0.000000000  2.734363998  2.734363998    -0.182857879  0.182857879  0.182857879
     2.734363998  0.000000000  2.734363998     0.182857879 -0.182857879  0.182857879
     2.734363998  2.734363998  0.000000000     0.182857879  0.182857879 -0.182857879

  length of vectors
     3.866974650  3.866974650  3.866974650     0.316719136  0.316719136  0.316719136



 old parameters found on file WAVECAR:
  energy-cutoff  :      100.00
  volume of cell :       40.89
      direct lattice vectors                 reciprocal lattice vectors
     0.000000000  2.734363998  2.734363998    -0.182857879  0.182857879  0.182857879
     2.734363998  0.000000000  2.734363998     0.182857879 -0.182857879  0.182857879
     2.734363998  2.734363998  0.000000000     0.182857879  0.182857879 -0.182857879

  length of vectors


 k-points in units of 2pi/SCALE and weight: Cubic                                   
   0.00000000  0.18285788  0.00000000       0.007
   0.00481205  0.18285788 -0.00000000       0.007
   0.00962410  0.18285788  0.00000000       0.007
   0.01443615  0.18285788 -0.00000000       0.007
   0.01924820  0.18285788  0.00000000       0.007
   0.02406025  0.18285788  0.00000000       0.007
   0.02887230  0.18285788 -0.00000000       0.007
   0.03368435  0.18285788  0.00000000       0.007
   0.03849640  0.18285788 -0.00000000       0.007
   0.04330844  0.18285788 -0.00000000       0.007
   0.04812049  0.18285788  0.00000000       0.007
   0.05293254  0.18285788 -0.00000000       0.007
   0.05774459  0.18285788 -0.00000000       0.007
   0.06255664  0.18285788 -0.00000000       0.007
   0.06736869  0.18285788 -0.00000000       0.007
   0.07218074  0.18285788  0.00000000       0.007
   0.07699279  0.18285788  0.00000000       0.007
   0.08180484  0.18285788 -0.00000000       0.007
   0.08661689  0.18285788  0.00000000       0.007
   0.09142894  0.18285788 -0.00000000       0.007
   0.09142894  0.18285788 -0.00000000       0.007
   0.09142894  0.17804583  0.00481205       0.007
   0.09142894  0.17323378  0.00962410       0.007
   0.09142894  0.16842173  0.01443615       0.007
   0.09142894  0.16360968  0.01924820       0.007
   0.09142894  0.15879763  0.02406025       0.007
   0.09142894  0.15398558  0.02887230       0.007
   0.09142894  0.14917353  0.03368435       0.007
   0.09142894  0.14436148  0.03849640       0.007
   0.09142894  0.13954943  0.04330844       0.007
   0.09142894  0.13473738  0.04812049       0.007
   0.09142894  0.12992533  0.05293254       0.007
   0.09142894  0.12511329  0.05774459       0.007
   0.09142894  0.12030124  0.06255664       0.007
   0.09142894  0.11548919  0.06736869       0.007
   0.09142894  0.11067714  0.07218074       0.007
   0.09142894  0.10586509  0.07699279       0.007
   0.09142894  0.10105304  0.08180484       0.007
   0.09142894  0.09624099  0.08661689       0.007
   0.09142894  0.09142894  0.09142894       0.007
   0.09142894  0.09142894  0.09142894       0.007
   0.08661689  0.08661689  0.08661689       0.007
   0.08180484  0.08180484  0.08180484       0.007
   0.07699279  0.07699279  0.07699279       0.007
   0.07218074  0.07218074  0.07218074       0.007
   0.06736869  0.06736869  0.06736869       0.007
   0.06255664  0.06255664  0.06255664       0.007
   0.05774459  0.05774459  0.05774459       0.007
   0.05293254  0.05293254  0.05293254       0.007
   0.04812049  0.04812049  0.04812049       0.007
   0.04330844  0.04330844  0.04330844       0.007
   0.03849640  0.03849640  0.03849640       0.007
   0.03368435  0.03368435  0.03368435       0.007
   0.02887230  0.02887230  0.02887230       0.007
   0.02406025  0.02406025  0.02406025       0.007
   0.01924820  0.01924820  0.01924820       0.007
   0.01443615  0.01443615  0.01443615       0.007
   0.00962410  0.00962410  0.00962410       0.007
   0.00481205  0.00481205  0.00481205       0.007
   0.00000000  0.00000000  0.00000000       0.007
   0.00000000  0.00000000  0.00000000       0.007
  -0.00000000  0.00962410  0.00000000       0.007
  -0.00000000  0.01924820  0.00000000       0.007
  -0.00000000  0.02887230  0.00000000       0.007
  -0.00000000  0.03849640  0.00000000       0.007
  -0.00000000  0.04812049  0.00000000       0.007
  -0.00000000  0.05774459  0.00000000       0.007
   0.00000000  0.06736869 -0.00000000       0.007
  -0.00000000  0.07699279  0.00000000       0.007
  -0.00000000  0.08661689  0.00000000       0.007
  -0.00000000  0.09624099  0.00000000       0.007
   0.00000000  0.10586509 -0.00000000       0.007
  -0.00000000  0.11548919  0.00000000       0.007
   0.00000000  0.12511329 -0.00000000       0.007
   0.00000000  0.13473738 -0.00000000       0.007
  -0.00000000  0.14436148  0.00000000       0.007
  -0.00000000  0.15398558  0.00000000       0.007
   0.00000000  0.16360968 -0.00000000       0.007
  -0.00000000  0.17323378  0.00000000       0.007
   0.00000000  0.18285788  0.00000000       0.007
   0.18285788  0.18285788  0.00000000       0.007
   0.18045185  0.18045185 -0.00000000       0.007
   0.17804583  0.17804583 -0.00000000       0.007
   0.17563980  0.17563980 -0.00000000       0.007
   0.17323378  0.17323378 -0.00000000       0.007
   0.17082776  0.17082776  0.00000000       0.007
   0.16842173  0.16842173  0.00000000       0.007
   0.16601571  0.16601571  0.00000000       0.007
   0.16360968  0.16360968  0.00000000       0.007
   0.16120366  0.16120366 -0.00000000       0.007
   0.15879763  0.15879763 -0.00000000       0.007
   0.15639161  0.15639161 -0.00000000       0.007
   0.15398558  0.15398558  0.00000000       0.007
   0.15157956  0.15157956 -0.00000000       0.007
   0.14917353  0.14917353  0.00000000       0.007
   0.14676751  0.14676751  0.00000000       0.007
   0.14436148  0.14436148  0.00000000       0.007
   0.14195546  0.14195546 -0.00000000       0.007
   0.13954943  0.13954943 -0.00000000       0.007
   0.13714341  0.13714341 -0.00000000       0.007
   0.13714341  0.13714341 -0.00000000       0.007
   0.13233136  0.13233136 -0.00000000       0.007
   0.12751931  0.12751931  0.00000000       0.007
   0.12270726  0.12270726 -0.00000000       0.007
   0.11789521  0.11789521 -0.00000000       0.007
   0.11308316  0.11308316  0.00000000       0.007
   0.10827111  0.10827111  0.00000000       0.007
   0.10345906  0.10345906  0.00000000       0.007
   0.09864701  0.09864701 -0.00000000       0.007
   0.09383496  0.09383496  0.00000000       0.007
   0.08902291  0.08902291 -0.00000000       0.007
   0.08421087  0.08421087  0.00000000       0.007
   0.07939882  0.07939882 -0.00000000       0.007
   0.07458677  0.07458677 -0.00000000       0.007
   0.06977472  0.06977472 -0.00000000       0.007
   0.06496267  0.06496267  0.00000000       0.007
   0.06015062  0.06015062  0.00000000       0.007
   0.05533857  0.05533857  0.00000000       0.007
   0.05052652  0.05052652  0.00000000       0.007
   0.04571447  0.04571447  0.00000000       0.007
   0.04571447  0.04571447  0.00000000       0.007
   0.04330844  0.04330844 -0.00000000       0.007
   0.04090242  0.04090242  0.00000000       0.007
   0.03849640  0.03849640  0.00000000       0.007
   0.03609037  0.03609037  0.00000000       0.007
   0.03368435  0.03368435 -0.00000000       0.007
   0.03127832  0.03127832  0.00000000       0.007
   0.02887230  0.02887230  0.00000000       0.007
   0.02646627  0.02646627 -0.00000000       0.007
   0.02406025  0.02406025 -0.00000000       0.007
   0.02165422  0.02165422 -0.00000000       0.007
   0.01924820  0.01924820 -0.00000000       0.007
   0.01684217  0.01684217 -0.00000000       0.007
   0.01443615  0.01443615 -0.00000000       0.007
   0.01203012  0.01203012 -0.00000000       0.007
   0.00962410  0.00962410  0.00000000       0.007
   0.00721807  0.00721807  0.00000000       0.007
   0.00481205  0.00481205 -0.00000000       0.007
   0.00240602  0.00240602 -0.00000000       0.007
   0.00000000  0.00000000  0.00000000       0.007

 k-points in reciprocal lattice and weights: Cubic                                   
   0.50000000  0.00000000  0.50000000       0.007
   0.50000000  0.01315789  0.51315789       0.007
   0.50000000  0.02631579  0.52631579       0.007
   0.50000000  0.03947368  0.53947368       0.007
   0.50000000  0.05263158  0.55263158       0.007
   0.50000000  0.06578947  0.56578947       0.007
   0.50000000  0.07894737  0.57894737       0.007
   0.50000000  0.09210526  0.59210526       0.007
   0.50000000  0.10526316  0.60526316       0.007
   0.50000000  0.11842105  0.61842105       0.007
   0.50000000  0.13157895  0.63157895       0.007
   0.50000000  0.14473684  0.64473684       0.007
   0.50000000  0.15789474  0.65789474       0.007
   0.50000000  0.17105263  0.67105263       0.007
   0.50000000  0.18421053  0.68421053       0.007
   0.50000000  0.19736842  0.69736842       0.007
   0.50000000  0.21052632  0.71052632       0.007
   0.50000000  0.22368421  0.72368421       0.007
   0.50000000  0.23684211  0.73684211       0.007
   0.50000000  0.25000000  0.75000000       0.007
   0.50000000  0.25000000  0.75000000       0.007
   0.50000000  0.26315789  0.73684211       0.007
   0.50000000  0.27631579  0.72368421       0.007
   0.50000000  0.28947368  0.71052632       0.007
   0.50000000  0.30263158  0.69736842       0.007
   0.50000000  0.31578947  0.68421053       0.007
   0.50000000  0.32894737  0.67105263       0.007
   0.50000000  0.34210526  0.65789474       0.007
   0.50000000  0.35526316  0.64473684       0.007
   0.50000000  0.36842105  0.63157895       0.007
   0.50000000  0.38157895  0.61842105       0.007
   0.50000000  0.39473684  0.60526316       0.007
   0.50000000  0.40789474  0.59210526       0.007
   0.50000000  0.42105263  0.57894737       0.007
   0.50000000  0.43421053  0.56578947       0.007
   0.50000000  0.44736842  0.55263158       0.007
   0.50000000  0.46052632  0.53947368       0.007
   0.50000000  0.47368421  0.52631579       0.007
   0.50000000  0.48684211  0.51315789       0.007
   0.50000000  0.50000000  0.50000000       0.007
   0.50000000  0.50000000  0.50000000       0.007
   0.47368421  0.47368421  0.47368421       0.007
   0.44736842  0.44736842  0.44736842       0.007
   0.42105263  0.42105263  0.42105263       0.007
   0.39473684  0.39473684  0.39473684       0.007
   0.36842105  0.36842105  0.36842105       0.007
   0.34210526  0.34210526  0.34210526       0.007
   0.31578947  0.31578947  0.31578947       0.007
   0.28947368  0.28947368  0.28947368       0.007
   0.26315789  0.26315789  0.26315789       0.007
   0.23684211  0.23684211  0.23684211       0.007
   0.21052632  0.21052632  0.21052632       0.007
   0.18421053  0.18421053  0.18421053       0.007
   0.15789474  0.15789474  0.15789474       0.007
   0.13157895  0.13157895  0.13157895       0.007
   0.10526316  0.10526316  0.10526316       0.007
   0.07894737  0.07894737  0.07894737       0.007
   0.05263158  0.05263158  0.05263158       0.007
   0.02631579  0.02631579  0.02631579       0.007
   0.00000000  0.00000000  0.00000000       0.007
   0.00000000  0.00000000  0.00000000       0.007
   0.02631579  0.00000000  0.02631579       0.007
   0.05263158  0.00000000  0.05263158       0.007
   0.07894737  0.00000000  0.07894737       0.007
   0.10526316  0.00000000  0.10526316       0.007
   0.13157895  0.00000000  0.13157895       0.007
   0.15789474  0.00000000  0.15789474       0.007
   0.18421053  0.00000000  0.18421053       0.007
   0.21052632  0.00000000  0.21052632       0.007
   0.23684211  0.00000000  0.23684211       0.007
   0.26315789  0.00000000  0.26315789       0.007
   0.28947368  0.00000000  0.28947368       0.007
   0.31578947  0.00000000  0.31578947       0.007
   0.34210526  0.00000000  0.34210526       0.007
   0.36842105  0.00000000  0.36842105       0.007
   0.39473684  0.00000000  0.39473684       0.007
   0.42105263  0.00000000  0.42105263       0.007
   0.44736842  0.00000000  0.44736842       0.007
   0.47368421  0.00000000  0.47368421       0.007
   0.50000000  0.00000000  0.50000000       0.007
   0.50000000  0.50000000  1.00000000       0.007
   0.49342105  0.49342105  0.98684211       0.007
   0.48684211  0.48684211  0.97368421       0.007
   0.48026316  0.48026316  0.96052632       0.007
   0.47368421  0.47368421  0.94736842       0.007
   0.46710526  0.46710526  0.93421053       0.007
   0.46052632  0.46052632  0.92105263       0.007
   0.45394737  0.45394737  0.90789474       0.007
   0.44736842  0.44736842  0.89473684       0.007
   0.44078947  0.44078947  0.88157895       0.007
   0.43421053  0.43421053  0.86842105       0.007
   0.42763158  0.42763158  0.85526316       0.007
   0.42105263  0.42105263  0.84210526       0.007
   0.41447368  0.41447368  0.82894737       0.007
   0.40789474  0.40789474  0.81578947       0.007
   0.40131579  0.40131579  0.80263158       0.007
   0.39473684  0.39473684  0.78947368       0.007
   0.38815789  0.38815789  0.77631579       0.007
   0.38157895  0.38157895  0.76315789       0.007
   0.37500000  0.37500000  0.75000000       0.007
   0.37500000  0.37500000  0.75000000       0.007
   0.36184211  0.36184211  0.72368421       0.007
   0.34868421  0.34868421  0.69736842       0.007
   0.33552632  0.33552632  0.67105263       0.007
   0.32236842  0.32236842  0.64473684       0.007
   0.30921053  0.30921053  0.61842105       0.007
   0.29605263  0.29605263  0.59210526       0.007
   0.28289474  0.28289474  0.56578947       0.007
   0.26973684  0.26973684  0.53947368       0.007
   0.25657895  0.25657895  0.51315789       0.007
   0.24342105  0.24342105  0.48684211       0.007
   0.23026316  0.23026316  0.46052632       0.007
   0.21710526  0.21710526  0.43421053       0.007
   0.20394737  0.20394737  0.40789474       0.007
   0.19078947  0.19078947  0.38157895       0.007
   0.17763158  0.17763158  0.35526316       0.007
   0.16447368  0.16447368  0.32894737       0.007
   0.15131579  0.15131579  0.30263158       0.007
   0.13815789  0.13815789  0.27631579       0.007
   0.12500000  0.12500000  0.25000000       0.007
   0.12500000  0.12500000  0.25000000       0.007
   0.11842105  0.11842105  0.23684211       0.007
   0.11184211  0.11184211  0.22368421       0.007
   0.10526316  0.10526316  0.21052632       0.007
   0.09868421  0.09868421  0.19736842       0.007
   0.09210526  0.09210526  0.18421053       0.007
   0.08552632  0.08552632  0.17105263       0.007
   0.07894737  0.07894737  0.15789474       0.007
   0.07236842  0.07236842  0.14473684       0.007
   0.06578947  0.06578947  0.13157895       0.007
   0.05921053  0.05921053  0.11842105       0.007
   0.05263158  0.05263158  0.10526316       0.007
   0.04605263  0.04605263  0.09210526       0.007
   0.03947368  0.03947368  0.07894737       0.007
   0.03289474  0.03289474  0.06578947       0.007
   0.02631579  0.02631579  0.05263158       0.007
   0.01973684  0.01973684  0.03947368       0.007
   0.01315789  0.01315789  0.02631579       0.007
   0.00657895  0.00657895  0.01315789       0.007
   0.00000000  0.00000000  0.00000000       0.007

 position of ions in fractional coordinates (direct lattice) 
   0.00000000  0.00000000  0.00000000
   0.25000000  0.25000000  0.25000000

 position of ions in cartesian coordinates  (Angst):
   0.00000000  0.00000000  0.00000000
   1.36718200  1.36718200  1.36718200



--------------------------------------------------------------------------------------------------------


 k-point   1 :   0.5000 0.0000 0.5000  plane waves:      92
 k-point   2 :   0.5000 0.0132 0.5132  plane waves:      92
 k-point   3 :   0.5000 0.0263 0.5263  plane waves:      92
 k-point   4 :   0.5000 0.0395 0.5395  plane waves:      92
 k-point   5 :   0.5000 0.0526 0.5526  plane waves:      92
 k-point   6 :   0.5000 0.0658 0.5658  plane waves:      92
 k-point   7 :   0.5000 0.0789 0.5789  plane waves:      96
 k-point   8 :   0.5000 0.0921 0.5921  plane waves:      96
 k-point   9 :   0.5000 0.1053 0.6053  plane waves:      96
 k-point  10 :   0.5000 0.1184 0.6184  plane waves:      96
 k-point  11 :   0.5000 0.1316 0.6316  plane waves:      96
 k-point  12 :   0.5000 0.1447 0.6447  plane waves:      96
 k-point  13 :   0.5000 0.1579 0.6579  plane waves:      98
 k-point  14 :   0.5000 0.1711 0.6711  plane waves:      98
 k-point  15 :   0.5000 0.1842 0.6842  plane waves:      96
 k-point  16 :   0.5000 0.1974 0.6974  plane waves:     100
 k-point  17 :   0.5000 0.2105 0.7105  plane waves:     100
 k-point  18 :   0.5000 0.2237 0.7237  plane waves:     100
 k-point  19 :   0.5000 0.2368 0.7368  plane waves:     100
 k-point  20 :   0.5000 0.2500 0.7500  plane waves:     100
 k-point  21 :   0.5000 0.2500 0.7500  plane waves:     100
 k-point  22 :   0.5000 0.2632 0.7368  plane waves:     100
 k-point  23 :   0.5000 0.2763 0.7237  plane waves:     100
 k-point  24 :   0.5000 0.2895 0.7105  plane waves:      96
 k-point  25 :   0.5000 0.3026 0.6974  plane waves:      94
 k-point  26 :   0.5000 0.3158 0.6842  plane waves:      94
 k-point  27 :   0.5000 0.3289 0.6711  plane waves:      94
 k-point  28 :   0.5000 0.3421 0.6579  plane waves:      94
 k-point  29 :   0.5000 0.3553 0.6447  plane waves:      94
 k-point  30 :   0.5000 0.3684 0.6316  plane waves:      94
 k-point  31 :   0.5000 0.3816 0.6184  plane waves:      92
 k-point  32 :   0.5000 0.3947 0.6053  plane waves:      92
 k-point  33 :   0.5000 0.4079 0.5921  plane waves:      92
 k-point  34 :   0.5000 0.4211 0.5789  plane waves:      92
 k-point  35 :   0.5000 0.4342 0.5658  plane waves:      94
 k-point  36 :   0.5000 0.4474 0.5526  plane waves:      90
 k-point  37 :   0.5000 0.4605 0.5395  plane waves:      92
 k-point  38 :   0.5000 0.4737 0.5263  plane waves:      90
 k-point  39 :   0.5000 0.4868 0.5132  plane waves:      90
 k-point  40 :   0.5000 0.5000 0.5000  plane waves:      90
 k-point  41 :   0.5000 0.5000 0.5000  plane waves:      90
 k-point  42 :   0.4737 0.4737 0.4737  plane waves:      90
 k-point  43 :   0.4474 0.4474 0.4474  plane waves:      90
 k-point  44 :   0.4211 0.4211 0.4211  plane waves:      89
 k-point  45 :   0.3947 0.3947 0.3947  plane waves:      92
 k-point  46 :   0.3684 0.3684 0.3684  plane waves:      92
 k-point  47 :   0.3421 0.3421 0.3421  plane waves:      92
 k-point  48 :   0.3158 0.3158 0.3158  plane waves:      92
 k-point  49 :   0.2895 0.2895 0.2895  plane waves:      98
 k-point  50 :   0.2632 0.2632 0.2632  plane waves:      95
 k-point  51 :   0.2368 0.2368 0.2368  plane waves:      95
 k-point  52 :   0.2105 0.2105 0.2105  plane waves:      95
 k-point  53 :   0.1842 0.1842 0.1842  plane waves:      95
 k-point  54 :   0.1579 0.1579 0.1579  plane waves:      95
 k-point  55 :   0.1316 0.1316 0.1316  plane waves:      95
 k-point  56 :   0.1053 0.1053 0.1053  plane waves:      95
 k-point  57 :   0.0789 0.0789 0.0789  plane waves:      98
 k-point  58 :   0.0526 0.0526 0.0526  plane waves:     101
 k-point  59 :   0.0263 0.0263 0.0263  plane waves:      95
 k-point  60 :   0.0000 0.0000 0.0000  plane waves:      89
 k-point  61 :   0.0000 0.0000 0.0000  plane waves:      89
 k-point  62 :   0.0263 0.0000 0.0263  plane waves:      97
 k-point  63 :   0.0526 0.0000 0.0526  plane waves:      97
 k-point  64 :   0.0789 0.0000 0.0789  plane waves:      89
 k-point  65 :   0.1053 0.0000 0.1053  plane waves:      89
 k-point  66 :   0.1316 0.0000 0.1316  plane waves:      89
 k-point  67 :   0.1579 0.0000 0.1579  plane waves:      89
 k-point  68 :   0.1842 0.0000 0.1842  plane waves:      89
 k-point  69 :   0.2105 0.0000 0.2105  plane waves:      85
 k-point  70 :   0.2368 0.0000 0.2368  plane waves:      84
 k-point  71 :   0.2632 0.0000 0.2632  plane waves:      84
 k-point  72 :   0.2895 0.0000 0.2895  plane waves:      88
 k-point  73 :   0.3158 0.0000 0.3158  plane waves:      88
 k-point  74 :   0.3421 0.0000 0.3421  plane waves:      88
 k-point  75 :   0.3684 0.0000 0.3684  plane waves:      88
 k-point  76 :   0.3947 0.0000 0.3947  plane waves:      92
 k-point  77 :   0.4211 0.0000 0.4211  plane waves:      92
 k-point  78 :   0.4474 0.0000 0.4474  plane waves:      92
 k-point  79 :   0.4737 0.0000 0.4737  plane waves:      92
 k-point  80 :   0.5000 0.0000 0.5000  plane waves:      92
 k-point  81 :   0.5000 0.5000 1.0000  plane waves:      92
 k-point  82 :   0.4934 0.4934 0.9868  plane waves:      92
 k-point  83 :   0.4868 0.4868 0.9737  plane waves:      92
 k-point  84 :   0.4803 0.4803 0.9605  plane waves:      92
 k-point  85 :   0.4737 0.4737 0.9474  plane waves:      92
 k-point  86 :   0.4671 0.4671 0.9342  plane waves:      92
 k-point  87 :   0.4605 0.4605 0.9211  plane waves:      92
 k-point  88 :   0.4539 0.4539 0.9079  plane waves:      92
 k-point  89 :   0.4474 0.4474 0.8947  plane waves:      96
 k-point  90 :   0.4408 0.4408 0.8816  plane waves:      96
 k-point  91 :   0.4342 0.4342 0.8684  plane waves:      96
 k-point  92 :   0.4276 0.4276 0.8553  plane waves:      96
 k-point  93 :   0.4211 0.4211 0.8421  plane waves:      95
 k-point  94 :   0.4145 0.4145 0.8289  plane waves:      95
 k-point  95 :   0.4079 0.4079 0.8158  plane waves:      97
 k-point  96 :   0.4013 0.4013 0.8026  plane waves:      97
 k-point  97 :   0.3947 0.3947 0.7895  plane waves:      97
 k-point  98 :   0.3882 0.3882 0.7763  plane waves:      97
 k-point  99 :   0.3816 0.3816 0.7632  plane waves:      97
 k-point 100 :   0.3750 0.3750 0.7500  plane waves:      97
 k-point 101 :   0.3750 0.3750 0.7500  plane waves:      97
 k-point 102 :   0.3618 0.3618 0.7237  plane waves:      97
 k-point 103 :   0.3487 0.3487 0.6974  plane waves:      97
 k-point 104 :   0.3355 0.3355 0.6711  plane waves:      97
 k-point 105 :   0.3224 0.3224 0.6447  plane waves:      95
 k-point 106 :   0.3092 0.3092 0.6184  plane waves:      95
 k-point 107 :   0.2961 0.2961 0.5921  plane waves:      93
 k-point 108 :   0.2829 0.2829 0.5658  plane waves:      93
 k-point 109 :   0.2697 0.2697 0.5395  plane waves:      93
 k-point 110 :   0.2566 0.2566 0.5132  plane waves:      93
 k-point 111 :   0.2434 0.2434 0.4868  plane waves:      93
 k-point 112 :   0.2303 0.2303 0.4605  plane waves:      93
 k-point 113 :   0.2171 0.2171 0.4342  plane waves:      95
 k-point 114 :   0.2039 0.2039 0.4079  plane waves:      95
 k-point 115 :   0.1908 0.1908 0.3816  plane waves:      95
 k-point 116 :   0.1776 0.1776 0.3553  plane waves:      91
 k-point 117 :   0.1645 0.1645 0.3289  plane waves:      91
 k-point 118 :   0.1513 0.1513 0.3026  plane waves:      91
 k-point 119 :   0.1382 0.1382 0.2763  plane waves:      91
 k-point 120 :   0.1250 0.1250 0.2500  plane waves:      91
 k-point 121 :   0.1250 0.1250 0.2500  plane waves:      91
 k-point 122 :   0.1184 0.1184 0.2368  plane waves:      91
 k-point 123 :   0.1118 0.1118 0.2237  plane waves:      91
 k-point 124 :   0.1053 0.1053 0.2105  plane waves:      91
 k-point 125 :   0.0987 0.0987 0.1974  plane waves:      95
 k-point 126 :   0.0921 0.0921 0.1842  plane waves:      95
 k-point 127 :   0.0855 0.0855 0.1711  plane waves:      95
 k-point 128 :   0.0789 0.0789 0.1579  plane waves:      95
 k-point 129 :   0.0724 0.0724 0.1447  plane waves:      95
 k-point 130 :   0.0658 0.0658 0.1316  plane waves:      95
 k-point 131 :   0.0592 0.0592 0.1184  plane waves:      95
 k-point 132 :   0.0526 0.0526 0.1053  plane waves:      99
 k-point 133 :   0.0461 0.0461 0.0921  plane waves:      99
 k-point 134 :   0.0395 0.0395 0.0789  plane waves:      99
 k-point 135 :   0.0329 0.0329 0.0658  plane waves:     101
 k-point 136 :   0.0263 0.0263 0.0526  plane waves:     101
 k-point 137 :   0.0197 0.0197 0.0395  plane waves:     101
 k-point 138 :   0.0132 0.0132 0.0263  plane waves:      95
 k-point 139 :   0.0066 0.0066 0.0132  plane waves:      91
 k-point 140 :   0.0000 0.0000 0.0000  plane waves:      89

 maximum and minimum number of plane-waves per node :       101       84

 maximum number of plane-waves:       101
 maximum index in each direction: 
   IXMAX=    3   IYMAX=    3   IZMAX=    3
   IXMIN=   -3   IYMIN=   -3   IZMIN=   -4


 serial   3D FFT for wavefunctions
 parallel 3D FFT for charge:
    minimum data exchange during FFTs selected (reduces bandwidth)


 total amount of memory used by VASP MPI-rank0    36341. kBytes
=======================================================================

   base      :      30000. kBytes
   nonl-proj :        908. kBytes
   fftplans  :       1488. kBytes
   grid      :       1843. kBytes
   one-center:          6. kBytes
   wavefun   :       2096. kBytes

     INWAV:  cpu time      0.0020: real time      0.0020
 initial charge density was supplied:
 number of electron       8.0000019 magnetization 
 keeping initial charge density in first step


--------------------------------------------------------------------------------------------------------


 Maximum index for augmentation-charges         2171 (set IRDMAX)


--------------------------------------------------------------------------------------------------------


 First call to EWALD:  gamma=   0.514
 Maximum number of real-space cells 3x 3x 3
 Maximum number of reciprocal cells 3x 3x 3

    FEWALD:  cpu time      0.0003: real time      0.0003


--------------------------------------- Ionic step        1  -------------------------------------------




--------------------------------------- Iteration      1(   1)  ---------------------------------------


    POTLOK:  cpu time      0.0054: real time      0.0054
    SETDIJ:  cpu time      0.0008: real time      0.0008
     EDDAV:  cpu time      4.9789: real time      0.4225
       DOS:  cpu time      0.0051: real time      0.0004
    --------------------------------------------
      LOOP:  cpu time      4.9903: real time      0.4291

 eigenvalue-minimisations  :  3192
 total energy-change (2. order) :-0.7565293E+01  (-0.5273232E+02)
 number of electron       8.0000019 magnetization 
 augmentation part        8.0000019 magnetization 

 Free energy of the ion-electron system (eV)
  ---------------------------------------------------
  alpha Z        PSCENC =         3.29318037
  Ewald energy   TEWEN  =      -226.94490223
  -Hartree energ DENC   =       -17.25544890
  -exchange      EXHF   =         0.00000000
  -V(xc)+E(xc)   XCENC  =       -17.73661538
  PAW double counting   =      2243.29505965    -2208.33658952
  entropy T*S    EENTRO =        -0.00000000
  eigenvalues    EBANDS =        10.22887293
  atomic energy  EATOM  =       205.89114989
  Solvation  Ediel_sol  =         0.00000000
  ---------------------------------------------------
  free energy    TOTEN  =        -7.56529318 eV

  energy without entropy =       -7.56529318  energy(sigma->0) =       -7.56529318


--------------------------------------------------------------------------------------------------------




--------------------------------------- Iteration      1(   2)  ---------------------------------------


     EDDAV:  cpu time      4.6882: real time      0.3965
       DOS:  cpu time      0.0049: real time      0.0004
    --------------------------------------------
      LOOP:  cpu time      4.6931: real time      0.3969

 eigenvalue-minimisations  :  2896
 total energy-change (2. order) :-0.3530995E+00  (-0.3530995E+00)
 number of electron       8.0000019 magnetization 
 augmentation part        8.0000019 magnetization 

 Free energy of the ion-electron system (eV)
  ---------------------------------------------------
  alpha Z        PSCENC =         3.29318037
  Ewald energy   TEWEN  =      -226.94490223
  -Hartree energ DENC   =       -17.25544890
  -exchange      EXHF   =         0.00000000
  -V(xc)+E(xc)   XCENC  =       -17.73661538
  PAW double counting   =      2243.29505965    -2208.33658952
  entropy T*S    EENTRO =        -0.00000000
  eigenvalues    EBANDS =         9.87577345
  atomic energy  EATOM  =       205.89114989
  Solvation  Ediel_sol  =         0.00000000
  ---------------------------------------------------
  free energy    TOTEN  =        -7.91839266 eV

  energy without entropy =       -7.91839266  energy(sigma->0) =       -7.91839266


--------------------------------------------------------------------------------------------------------




--------------------------------------- Iteration      1(   3)  ---------------------------------------


     EDDAV:  cpu time      5.5491: real time      0.4685
       DOS:  cpu time      0.0048: real time      0.0004
    --------------------------------------------
      LOOP:  cpu time      5.5539: real time      0.4689

 eigenvalue-minimisations  :  3448
 total energy-change (2. order) :-0.8455177E-03  (-0.8455177E-03)
 number of electron       8.0000019 magnetization 
 augmentation part        8.0000019 magnetization 

 Free energy of the ion-electron system (eV)
  ---------------------------------------------------
  alpha Z        PSCENC =         3.29318037
  Ewald energy   TEWEN  =      -226.94490223
  -Hartree energ DENC   =       -17.25544890
  -exchange      EXHF   =         0.00000000
  -V(xc)+E(xc)   XCENC  =       -17.73661538
  PAW double counting   =      2243.29505965    -2208.33658952
  entropy T*S    EENTRO =        -0.00000000
  eigenvalues    EBANDS =         9.87492793
  atomic energy  EATOM  =       205.89114989
  Solvation  Ediel_sol  =         0.00000000
  ---------------------------------------------------
  free energy    TOTEN  =        -7.91923818 eV

  energy without entropy =       -7.91923818  energy(sigma->0) =       -7.91923818


--------------------------------------------------------------------------------------------------------




--------------------------------------- Iteration      1(   4)  ---------------------------------------


     EDDAV:  cpu time      4.6028: real time      0.3899
       DOS:  cpu time      0.0050: real time      0.0004
    --------------------------------------------
      LOOP:  cpu time      4.6078: real time      0.3903

 eigenvalue-minimisations  :  2800
 total energy-change (2. order) :-0.2692741E-06  (-0.2692742E-06)
 number of electron       8.0000019 magnetization 
 augmentation part        8.0000019 magnetization 

 Free energy of the ion-electron system (eV)
  ---------------------------------------------------
  alpha Z        PSCENC =         3.29318037
  Ewald energy   TEWEN  =      -226.94490223
  -Hartree energ DENC   =       -17.25544890
  -exchange      EXHF   =         0.00000000
  -V(xc)+E(xc)   XCENC  =       -17.73661538
  PAW double counting   =      2243.29505965    -2208.33658952
  entropy T*S    EENTRO =        -0.00000000
  eigenvalues    EBANDS =         9.87492767
  atomic energy  EATOM  =       205.89114989
  Solvation  Ediel_sol  =         0.00000000
  ---------------------------------------------------
  free energy    TOTEN  =        -7.91923845 eV

  energy without entropy =       -7.91923845  energy(sigma->0) =       -7.91923845


--------------------------------------------------------------------------------------------------------




 average (electrostatic) potential at core
  the test charge radii are     0.9892
  (the norm of the test charge is              1.0000)
       1 -83.1814       2 -83.1814



 E-fermi :   6.1725     XC(G=0):  -9.1489     alpha+bet :-11.7317

 Fermi energy:         6.1724569207

 k-point     1 :       0.5000    0.0000    0.5000
  band No.  band energies     occupation 
      1      -1.8663      2.00000
      2      -1.8663      2.00000
      3       3.0896      2.00000
      4       3.0896      2.00000
      5       6.7115      0.00000
      6       6.7115      0.00000
      7      16.0236      0.00000
      8      16.0236      0.00000

 k-point     2 :       0.5000    0.0132    0.5132
  band No.  band energies     occupation 
      1      -1.8653      2.00000
      2      -1.8653      2.00000
      3       3.0805      2.00000
      4       3.0805      2.00000
      5       6.7283      0.00000
      6       6.7283      0.00000
      7      15.9993      0.00000
      8      15.9994      0.00000

 k-point     3 :       0.5000    0.0263    0.5263
  band No.  band energies     occupation 
      1      -1.8622      2.00000
      2      -1.8622      2.00000
      3       3.0538      2.00000
      4       3.0539      2.00000
      5       6.7782      0.00000
      6       6.7782      0.00000
      7      15.9233      0.00000
      8      15.9234      0.00000

 k-point     4 :       0.5000    0.0395    0.5395
  band No.  band energies     occupation 
      1      -1.8573      2.00000
      2      -1.8573      2.00000
      3       3.0113      2.00000
      4       3.0113      2.00000
      5       6.8596      0.00000
      6       6.8596      0.00000
      7      15.7916      0.00000
      8      15.7917      0.00000

 k-point     5 :       0.5000    0.0526    0.5526
  band No.  band energies     occupation 
      1      -1.8505      2.00000
      2      -1.8505      2.00000
      3       2.9553      2.00000
      4       2.9553      2.00000
      5       6.9699      0.00000
      6       6.9700      0.00000
      7      15.6027      0.00000
      8      15.6028      0.00000

 k-point     6 :       0.5000    0.0658    0.5658
  band No.  band energies     occupation 
      1      -1.8421      2.00000
      2      -1.8421      2.00000
      3       2.8887      2.00000
      4       2.8887      2.00000
      5       7.1066      0.00000
      6       7.1066      0.00000
      7      15.3628      0.00000
      8      15.3628      0.00000

 k-point     7 :       0.5000    0.0789    0.5789
  band No.  band energies     occupation 
      1      -1.8350      2.00000
      2      -1.8350      2.00000
      3       2.8040      2.00000
      4       2.8040      2.00000
      5       7.2617      0.00000
      6       7.2617      0.00000
      7      15.0398      0.00000
      8      15.0399      0.00000

 k-point     8 :       0.5000    0.0921    0.5921
  band No.  band energies     occupation 
      1      -1.8238      2.00000
      2      -1.8238      2.00000
      3       2.7250      2.00000
      4       2.7250      2.00000
      5       7.4425      0.00000
      6       7.4425      0.00000
      7      14.7319      0.00000
      8      14.7319      0.00000

 k-point     9 :       0.5000    0.1053    0.6053
  band No.  band energies     occupation 
      1      -1.8116      2.00000
      2      -1.8116      2.00000
      3       2.6438      2.00000
      4       2.6438      2.00000
      5       7.6415      0.00000
      6       7.6415      0.00000
      7      14.4071      0.00000
      8      14.4072      0.00000

 k-point    10 :       0.5000    0.1184    0.6184
  band No.  band energies     occupation 
      1      -1.7987      2.00000
      2      -1.7987      2.00000
      3       2.5629      2.00000
      4       2.5629      2.00000
      5       7.8565      0.00000
      6       7.8565      0.00000
      7      14.0720      0.00000
      8      14.0721      0.00000

 k-point    11 :       0.5000    0.1316    0.6316
  band No.  band energies     occupation 
      1      -1.7853      2.00000
      2      -1.7853      2.00000
      3       2.4843      2.00000
      4       2.4843      2.00000
      5       8.0857      0.00000
      6       8.0857      0.00000
      7      13.7313      0.00000
      8      13.7313      0.00000

 k-point    12 :       0.5000    0.1447    0.6447
  band No.  band energies     occupation 
      1      -1.7720      2.00000
      2      -1.7720      2.00000
      3       2.4095      2.00000
      4       2.4096      2.00000
      5       8.3275      0.00000
      6       8.3275      0.00000
      7      13.3880      0.00000
      8      13.3881      0.00000

 k-point    13 :       0.5000    0.1579    0.6579
  band No.  band energies     occupation 
      1      -1.7623      2.00000
      2      -1.7623      2.00000
      3       2.3331      2.00000
      4       2.3332      2.00000
      5       8.6128      0.00000
      6       8.6128      0.00000
      7      13.0362      0.00000
      8      13.0362      0.00000

 k-point    14 :       0.5000    0.1711    0.6711
  band No.  band energies     occupation 
      1      -1.7500      2.00000
      2      -1.7500      2.00000
      3       2.2704      2.00000
      4       2.2704      2.00000
      5       8.8769      0.00000
      6       8.8769      0.00000
      7      12.6940      0.00000
      8      12.6940      0.00000

 k-point    15 :       0.5000    0.1842    0.6842
  band No.  band energies     occupation 
      1      -1.7385      2.00000
      2      -1.7385      2.00000
      3       2.2178      2.00000
      4       2.2178      2.00000
      5       9.1524      0.00000
      6       9.1524      0.00000
      7      12.3554      0.00000
      8      12.3554      0.00000

 k-point    16 :       0.5000    0.1974    0.6974
  band No.  band energies     occupation 
      1      -1.7352      2.00000
      2      -1.7352      2.00000
      3       2.1706      2.00000
      4       2.1706      2.00000
      5       9.4204      0.00000
      6       9.4204      0.00000
      7      12.0048      0.00000
      8      12.0048      0.00000

 k-point    17 :       0.5000    0.2105    0.7105
  band No.  band energies     occupation 
      1      -1.7275      2.00000
      2      -1.7275      2.00000
      3       2.1339      2.00000
      4       2.1339      2.00000
      5       9.7044      0.00000
      6       9.7044      0.00000
      7      11.6785      0.00000
      8      11.6786      0.00000

 k-point    18 :       0.5000    0.2237    0.7237
  band No.  band energies     occupation 
      1      -1.7217      2.00000
      2      -1.7217      2.00000
      3       2.1073      2.00000
      4       2.1073      2.00000
      5       9.9878      0.00000
      6       9.9878      0.00000
      7      11.3649      0.00000
      8      11.3650      0.00000

 k-point    19 :       0.5000    0.2368    0.7368
  band No.  band energies     occupation 
      1      -1.7182      2.00000
      2      -1.7182      2.00000
      3       2.0911      2.00000
      4       2.0911      2.00000
      5      10.2516      0.00000
      6      10.2516      0.00000
      7      11.0830      0.00000
      8      11.0830      0.00000

 k-point    20 :       0.5000    0.2500    0.7500
  band No.  band energies     occupation 
      1      -1.7170      2.00000
      2      -1.7170      2.00000
      3       2.0857      2.00000
      4       2.0857      2.00000
      5      10.3957      0.00000
      6      10.3957      0.00000
      7      10.9328      0.00000
      8      10.9329      0.00000

 k-point    21 :       0.5000    0.2500    0.7500
  band No.  band energies     occupation 
      1      -1.7170      2.00000
      2      -1.7170      2.00000
      3       2.0857      2.00000
      4       2.0857      2.00000
      5      10.3957      0.00000
      6      10.3957      0.00000
      7      10.9328      0.00000
      8      10.9329      0.00000

 k-point    22 :       0.5000    0.2632    0.7368
  band No.  band energies     occupation 
      1      -1.8880      2.00000
      2      -1.5492      2.00000
      3       1.9692      2.00000
      4       2.2240      2.00000
      5      10.2349      0.00000
      6      10.4416      0.00000
      7      10.8855      0.00000
      8      11.1202      0.00000

 k-point    23 :       0.5000    0.2763    0.7237
  band No.  band energies     occupation 
      1      -2.0589      2.00000
      2      -1.3891      2.00000
      3       1.8792      2.00000
      4       2.3797      2.00000
      5      10.0583      0.00000
      6      10.3132      0.00000
      7      11.0371      0.00000
      8      11.3486      0.00000

 k-point    24 :       0.5000    0.2895    0.7105
  band No.  band energies     occupation 
      1      -2.2194      2.00000
      2      -1.2394      2.00000
      3       1.8243      2.00000
      4       2.5565      2.00000
      5       9.8926      0.00000
      6      10.1329      0.00000
      7      11.2951      0.00000
      8      11.6002      0.00000

 k-point    25 :       0.5000    0.3026    0.6974
  band No.  band energies     occupation 
      1      -2.3803      2.00000
      2      -1.1105      2.00000
      3       1.8061      2.00000
      4       2.7465      2.00000
      5       9.7426      0.00000
      6       9.9481      0.00000
      7      11.5550      0.00000
      8      11.8586      0.00000

 k-point    26 :       0.5000    0.3158    0.6842
  band No.  band energies     occupation 
      1      -2.5375      2.00000
      2      -1.0050      2.00000
      3       1.8299      2.00000
      4       2.9344      2.00000
      5       9.6032      0.00000
      6       9.7663      0.00000
      7      11.8292      0.00000
      8      12.1261      0.00000

 k-point    27 :       0.5000    0.3289    0.6711
  band No.  band energies     occupation 
      1      -2.6870      2.00000
      2      -0.9263      2.00000
      3       1.9003      2.00000
      4       3.1271      2.00000
      5       9.4815      0.00000
      6       9.5909      0.00000
      7      12.1153      0.00000
      8      12.4003      0.00000

 k-point    28 :       0.5000    0.3421    0.6579
  band No.  band energies     occupation 
      1      -2.8277      2.00000
      2      -0.8750      2.00000
      3       2.0177      2.00000
      4       3.3218      2.00000
      5       9.3790      0.00000
      6       9.4226      0.00000
      7      12.4000      0.00000
      8      12.6792      0.00000

 k-point    29 :       0.5000    0.3553    0.6447
  band No.  band energies     occupation 
      1      -2.9590      2.00000
      2      -0.8486      2.00000
      3       2.1792      2.00000
      4       3.5156      2.00000
      5       9.2608      0.00000
      6       9.2965      0.00000
      7      12.5629      0.00000
      8      12.9599      0.00000

 k-point    30 :       0.5000    0.3684    0.6316
  band No.  band energies     occupation 
      1      -3.0801      2.00000
      2      -0.8427      2.00000
      3       2.3800      2.00000
      4       3.7053      2.00000
      5       9.1041      0.00000
      6       9.2348      0.00000
      7      12.2227      0.00000
      8      13.1830      0.00000

 k-point    31 :       0.5000    0.3816    0.6184
  band No.  band energies     occupation 
      1      -3.1872      2.00000
      2      -0.8509      2.00000
      3       2.6165      2.00000
      4       3.8836      2.00000
      5       8.9469      0.00000
      6       9.1699      0.00000
      7      11.7440      0.00000
      8      13.5082      0.00000

 k-point    32 :       0.5000    0.3947    0.6053
  band No.  band energies     occupation 
      1      -3.2871      2.00000
      2      -0.8704      2.00000
      3       2.8768      2.00000
      4       4.0550      2.00000
      5       8.7926      0.00000
      6       9.1528      0.00000
      7      11.2766      0.00000
      8      13.7575      0.00000

 k-point    33 :       0.5000    0.4079    0.5921
  band No.  band energies     occupation 
      1      -3.3758      2.00000
      2      -0.8957      2.00000
      3       3.1570      2.00000
      4       4.2131      2.00000
      5       8.6327      0.00000
      6       9.1564      0.00000
      7      10.8393      0.00000
      8      13.9429      0.00000

 k-point    34 :       0.5000    0.4211    0.5789
  band No.  band energies     occupation 
      1      -3.4531      2.00000
      2      -0.9231      2.00000
      3       3.4505      2.00000
      4       4.3552      2.00000
      5       8.4609      0.00000
      6       9.1788      0.00000
      7      10.4455      0.00000
      8      14.0456      0.00000

 k-point    35 :       0.5000    0.4342    0.5658
  band No.  band energies     occupation 
      1      -3.5189      2.00000
      2      -0.9501      2.00000
      3       3.7418      2.00000
      4       4.4759      2.00000
      5       8.2655      0.00000
      6       9.1765      0.00000
      7      10.1011      0.00000
      8      14.0332      0.00000

 k-point    36 :       0.5000    0.4474    0.5526
  band No.  band energies     occupation 
      1      -3.5702      2.00000
      2      -0.9732      2.00000
      3       4.0457      2.00000
      4       4.5823      2.00000
      5       8.0618      0.00000
      6       9.2364      0.00000
      7       9.8319      0.00000
      8      13.9517      0.00000

 k-point    37 :       0.5000    0.4605    0.5395
  band No.  band energies     occupation 
      1      -3.6124      2.00000
      2      -0.9935      2.00000
      3       4.3094      2.00000
      4       4.6611      2.00000
      5       7.8387      0.00000
      6       9.2722      0.00000
      7       9.5909      0.00000
      8      13.8224      0.00000

 k-point    38 :       0.5000    0.4737    0.5263
  band No.  band energies     occupation 
      1      -3.6406      2.00000
      2      -1.0080      2.00000
      3       4.5479      2.00000
      4       4.7239      2.00000
      5       7.6356      0.00000
      6       9.3231      0.00000
      7       9.4632      0.00000
      8      13.7083      0.00000

 k-point    39 :       0.5000    0.4868    0.5132
  band No.  band energies     occupation 
      1      -3.6587      2.00000
      2      -1.0173      2.00000
      3       4.7104      2.00000
      4       4.7583      2.00000
      5       7.4868      0.00000
      6       9.3539      0.00000
      7       9.3889      0.00000
      8      13.6290      0.00000

 k-point    40 :       0.5000    0.5000    0.5000
  band No.  band energies     occupation 
      1      -3.6648      2.00000
      2      -1.0205      2.00000
      3       4.7697      2.00000
      4       4.7697      2.00000
      5       7.4314      0.00000
      6       9.3649      0.00000
      7       9.3649      0.00000
      8      13.6008      0.00000

 k-point    41 :       0.5000    0.5000    0.5000
  band No.  band energies     occupation 
      1      -3.6648      2.00000
      2      -1.0205      2.00000
      3       4.7697      2.00000
      4       4.7697      2.00000
      5       7.4314      0.00000
      6       9.3649      0.00000
      7       9.3649      0.00000
      8      13.6008      0.00000

 k-point    42 :       0.4737    0.4737    0.4737
  band No.  band energies     occupation 
      1      -3.7038      2.00000
      2      -0.9642      2.00000
      3       4.7749      2.00000
      4       4.7749      2.00000
      5       7.4372      0.00000
      6       9.3706      0.00000
      7       9.3706      0.00000
      8      13.6094      0.00000

 k-point    43 :       0.4474    0.4474    0.4474
  band No.  band energies     occupation 
      1      -3.8116      2.00000
      2      -0.8047      2.00000
      3       4.7903      2.00000
      4       4.7903      2.00000
      5       7.4546      0.00000
      6       9.3872      0.00000
      7       9.3872      0.00000
      8      13.6343      0.00000

 k-point    44 :       0.4211    0.4211    0.4211
  band No.  band energies     occupation 
      1      -3.9670      2.00000
      2      -0.5607      2.00000
      3       4.8161      2.00000
      4       4.8161      2.00000
      5       7.4978      0.00000
      6       9.4133      0.00000
      7       9.4133      0.00000
      8      13.6772      0.00000

 k-point    45 :       0.3947    0.3947    0.3947
  band No.  band energies     occupation 
      1      -4.1513      2.00000
      2      -0.2580      2.00000
      3       4.8497      2.00000
      4       4.8497      2.00000
      5       7.5333      0.00000
      6       9.4387      0.00000
      7       9.4387      0.00000
      8      13.7212      0.00000

 k-point    46 :       0.3684    0.3684    0.3684
  band No.  band energies     occupation 
      1      -4.3480      2.00000
      2       0.0926      2.00000
      3       4.8959      2.00000
      4       4.8959      2.00000
      5       7.5834      0.00000
      6       9.4751      0.00000
      7       9.4751      0.00000
      8      13.7563      0.00000

 k-point    47 :       0.3421    0.3421    0.3421
  band No.  band energies     occupation 
      1      -4.5471      2.00000
      2       0.4790      2.00000
      3       4.9523      2.00000
      4       4.9523      2.00000
      5       7.6444      0.00000
      6       9.5102      0.00000
      7       9.5102      0.00000
      8      13.7463      0.00000

 k-point    48 :       0.3158    0.3158    0.3158
  band No.  band energies     occupation 
      1      -4.7419      2.00000
      2       0.8941      2.00000
      3       5.0186      2.00000
      4       5.0186      2.00000
      5       7.7157      0.00000
      6       9.5374      0.00000
      7       9.5374      0.00000
      8      13.6251      0.00000

 k-point    49 :       0.2895    0.2895    0.2895
  band No.  band energies     occupation 
      1      -4.9295      2.00000
      2       1.3203      2.00000
      3       5.0832      2.00000
      4       5.0832      2.00000
      5       7.7955      0.00000
      6       9.4937      0.00000
      7       9.4937      0.00000
      8      13.3450      0.00000

 k-point    50 :       0.2632    0.2632    0.2632
  band No.  band energies     occupation 
      1      -5.1023      2.00000
      2       1.7945      2.00000
      3       5.1686      2.00000
      4       5.1686      2.00000
      5       7.8852      0.00000
      6       9.4755      0.00000
      7       9.4755      0.00000
      8      12.9598      0.00000

[...]
      7      12.2381      0.00000
      8      12.6517      0.00000

 k-point   108 :       0.2829    0.2829    0.5658
  band No.  band energies     occupation 
      1      -3.4645      2.00000
      2      -0.1062      2.00000
      3       1.8194      2.00000
      4       4.2972      2.00000
      5       8.0498      0.00000
      6      11.3797      0.00000
      7      11.9624      0.00000
      8      12.4501      0.00000

 k-point   109 :       0.2697    0.2697    0.5395
  band No.  band energies     occupation 
      1      -3.6615      2.00000
      2       0.1121      2.00000
      3       1.9529      2.00000
      4       4.4282      2.00000
      5       8.1895      0.00000
      6      11.1248      0.00000
      7      11.6939      0.00000
      8      12.2648      0.00000

 k-point   110 :       0.2566    0.2566    0.5132
  band No.  band energies     occupation 
      1      -3.8571      2.00000
      2       0.3426      2.00000
      3       2.1059      2.00000
      4       4.5613      2.00000
      5       8.3270      0.00000
      6      10.8810      0.00000
      7      11.4358      0.00000
      8      12.0981      0.00000

 k-point   111 :       0.2434    0.2434    0.4868
  band No.  band energies     occupation 
      1      -4.0495      2.00000
      2       0.5853      2.00000
      3       2.2762      2.00000
      4       4.6951      2.00000
      5       8.4591      0.00000
      6      10.6485      0.00000
      7      11.1888      0.00000
      8      11.9521      0.00000

 k-point   112 :       0.2303    0.2303    0.4605
  band No.  band energies     occupation 
      1      -4.2369      2.00000
      2       0.8400      2.00000
      3       2.4622      2.00000
      4       4.8285      2.00000
      5       8.5821      0.00000
      6      10.4275      0.00000
      7      10.9533      0.00000
      8      11.8292      0.00000

 k-point   113 :       0.2171    0.2171    0.4342
  band No.  band energies     occupation 
      1      -4.4182      2.00000
      2       1.1066      2.00000
      3       2.6581      2.00000
      4       4.9599      2.00000
      5       8.6921      0.00000
      6      10.2012      0.00000
      7      10.7261      0.00000
      8      11.7314      0.00000

 k-point   114 :       0.2039    0.2039    0.4079
  band No.  band energies     occupation 
      1      -4.5922      2.00000
      2       1.3847      2.00000
      3       2.8704      2.00000
      4       5.0879      2.00000
      5       8.7852      0.00000
      6      10.0042      0.00000
      7      10.5132      0.00000
      8      11.6598      0.00000

 k-point   115 :       0.1908    0.1908    0.3816
  band No.  band energies     occupation 
      1      -4.7580      2.00000
      2       1.6742      2.00000
      3       3.0937      2.00000
      4       5.2112      2.00000
      5       8.8584      0.00000
      6       9.8191      0.00000
      7      10.3117      0.00000
      8      11.6134      0.00000

 k-point   116 :       0.1776    0.1776    0.3553
  band No.  band energies     occupation 
      1      -4.9121      2.00000
      2       1.9855      2.00000
      3       3.3383      2.00000
      4       5.3298      2.00000
      5       8.9117      0.00000
      6       9.6460      0.00000
      7      10.1246      0.00000
      8      11.5919      0.00000

 k-point   117 :       0.1645    0.1645    0.3289
  band No.  band energies     occupation 
      1      -5.0598      2.00000
      2       2.2969      2.00000
      3       3.5792      2.00000
      4       5.4396      2.00000
      5       8.9413      0.00000
      6       9.4850      0.00000
      7       9.9441      0.00000
      8      11.5777      0.00000

 k-point   118 :       0.1513    0.1513    0.3026
  band No.  band energies     occupation 
      1      -5.1976      2.00000
      2       2.6185      2.00000
      3       3.8263      2.00000
      4       5.5412      2.00000
      5       8.9515      0.00000
      6       9.3362      0.00000
      7       9.7742      0.00000
      8      11.5598      0.00000

 k-point   119 :       0.1382    0.1382    0.2763
  band No.  band energies     occupation 
      1      -5.3250      2.00000
      2       2.9496      2.00000
      3       4.0778      2.00000
      4       5.6336      2.00000
      5       8.9456      0.00000
      6       9.1997      0.00000
      7       9.6144      0.00000
      8      11.5164      0.00000

 k-point   120 :       0.1250    0.1250    0.2500
  band No.  band energies     occupation 
      1      -5.4417      2.00000
      2       3.2893      2.00000
      3       4.3314      2.00000
      4       5.7164      2.00000
      5       8.9275      0.00000
      6       9.0754      0.00000
      7       9.4642      0.00000
      8      11.4214      0.00000

 k-point   121 :       0.1250    0.1250    0.2500
  band No.  band energies     occupation 
      1      -5.4417      2.00000
      2       3.2893      2.00000
      3       4.3314      2.00000
      4       5.7164      2.00000
      5       8.9275      0.00000
      6       9.0754      0.00000
      7       9.4642      0.00000
      8      11.4214      0.00000

 k-point   122 :       0.1184    0.1184    0.2368
  band No.  band energies     occupation 
      1      -5.4960      2.00000
      2       3.4620      2.00000
      3       4.4582      2.00000
      4       5.7542      2.00000
      5       8.9152      0.00000
      6       9.0179      0.00000
      7       9.3925      0.00000
      8      11.3473      0.00000

 k-point   123 :       0.1118    0.1118    0.2237
  band No.  band energies     occupation 
      1      -5.5474      2.00000
      2       3.6365      2.00000
      3       4.5846      2.00000
      4       5.7895      2.00000
      5       8.9012      0.00000
      6       8.9635      0.00000
      7       9.3231      0.00000
      8      11.2533      0.00000

 k-point   124 :       0.1053    0.1053    0.2105
  band No.  band energies     occupation 
      1      -5.5961      2.00000
      2       3.8124      2.00000
      3       4.7101      2.00000
      4       5.8224      2.00000
      5       8.8860      0.00000
      6       8.9122      0.00000
      7       9.2558      0.00000
      8      11.1394      0.00000

 k-point   125 :       0.0987    0.0987    0.1974
  band No.  band energies     occupation 
      1      -5.6421      2.00000
      2       3.9870      2.00000
      3       4.8247      2.00000
      4       5.8237      2.00000
      5       8.8060      0.00000
      6       8.8613      0.00000
      7       9.1807      0.00000
      8      11.0037      0.00000

 k-point   126 :       0.0921    0.0921    0.1842
  band No.  band energies     occupation 
      1      -5.6850      2.00000
      2       4.1650      2.00000
      3       4.9467      2.00000
      4       5.8508      2.00000
      5       8.7610      0.00000
      6       8.8443      0.00000
      7       9.1183      0.00000
      8      10.8542      0.00000

 k-point   127 :       0.0855    0.0855    0.1711
  band No.  band energies     occupation 
      1      -5.7251      2.00000
      2       4.3434      2.00000
      3       5.0663      2.00000
      4       5.8755      2.00000
      5       8.7191      0.00000
      6       8.8268      0.00000
      7       9.0579      0.00000
      8      10.6918      0.00000

 k-point   128 :       0.0789    0.0789    0.1579
  band No.  band energies     occupation 
      1      -5.7623      2.00000
      2       4.5218      2.00000
      3       5.1830      2.00000
      4       5.8981      2.00000
      5       8.6803      0.00000
      6       8.8091      0.00000
      7       8.9996      0.00000
      8      10.5201      0.00000

 k-point   129 :       0.0724    0.0724    0.1447
  band No.  band energies     occupation 
      1      -5.7965      2.00000
      2       4.6995      2.00000
      3       5.2962      2.00000
      4       5.9186      2.00000
      5       8.6446      0.00000
      6       8.7912      0.00000
      7       8.9434      0.00000
      8      10.3423      0.00000

 k-point   130 :       0.0658    0.0658    0.1316
  band No.  band energies     occupation 
      1      -5.8279      2.00000
      2       4.8758      2.00000
      3       5.4050      2.00000
      4       5.9371      2.00000
      5       8.6120      0.00000
      6       8.7730      0.00000
      7       8.8893      0.00000
      8      10.1619      0.00000

 k-point   131 :       0.0592    0.0592    0.1184
  band No.  band energies     occupation 
      1      -5.8562      2.00000
      2       5.0496      2.00000
      3       5.5088      2.00000
      4       5.9536      2.00000
      5       8.5825      0.00000
      6       8.7542      0.00000
      7       8.8377      0.00000
      8       9.9822      0.00000

 k-point   132 :       0.0526    0.0526    0.1053
  band No.  band energies     occupation 
      1      -5.8820      2.00000
      2       5.1986      2.00000
      3       5.6053      2.00000
      4       5.9676      2.00000
      5       8.5560      0.00000
      6       8.7031      0.00000
      7       8.7228      0.00000
      8       9.7929      0.00000

 k-point   133 :       0.0461    0.0461    0.0921
  band No.  band energies     occupation 
      1      -5.9045      2.00000
      2       5.3612      2.00000
      3       5.6956      2.00000
      4       5.9805      2.00000
      5       8.5328      0.00000
      6       8.6764      0.00000
      7       8.6797      0.00000
      8       9.6287      0.00000

 k-point   134 :       0.0395    0.0395    0.0789
  band No.  band energies     occupation 
      1      -5.9240      2.00000
      2       5.5155      2.00000
      3       5.7779      2.00000
      4       5.9918      2.00000
      5       8.5126      0.00000
      6       8.6335      0.00000
      7       8.6532      0.00000
      8       9.4776      0.00000

 k-point   135 :       0.0329    0.0329    0.0658
  band No.  band energies     occupation 
      1      -5.9406      2.00000
      2       5.6482      2.00000
      3       5.8465      2.00000
      4       6.0015      2.00000
      5       8.4956      0.00000
      6       8.5628      0.00000
      7       8.6008      0.00000
      8       9.3427      0.00000

 k-point   136 :       0.0263    0.0263    0.0526
  band No.  band energies     occupation 
      1      -5.9541      2.00000
      2       5.7749      2.00000
      3       5.9080      2.00000
      4       6.0096      2.00000
      5       8.4817      0.00000
      6       8.5292      0.00000
      7       8.5651      0.00000
      8       9.2344      0.00000

 k-point   137 :       0.0197    0.0197    0.0395
  band No.  band energies     occupation 
      1      -5.9646      2.00000
      2       5.8815      2.00000
      3       5.9580      2.00000
      4       6.0162      2.00000
      5       8.4710      0.00000
      6       8.5013      0.00000
      7       8.5273      0.00000
      8       9.1522      0.00000

 k-point   138 :       0.0132    0.0132    0.0263
  band No.  band energies     occupation 
      1      -5.9721      2.00000
      2       5.9651      2.00000
      3       6.0302      2.00000
      4       6.0412      2.00000
      5       8.4762      0.00000
      6       8.4873      0.00000
      7       8.5056      0.00000
      8       9.1171      0.00000

 k-point   139 :       0.0066    0.0066    0.0132
  band No.  band energies     occupation 
      1      -5.9766      2.00000
      2       6.0314      2.00000
      3       6.0578      2.00000
      4       6.0614      2.00000
      5       8.4802      0.00000
      6       8.4838      0.00000
      7       8.4861      0.00000
      8       9.0984      0.00000

 k-point   140 :       0.0000    0.0000    0.0000
  band No.  band energies     occupation 
      1      -5.9781      2.00000
      2       6.0650      2.00000
      3       6.0651      2.00000
      4       6.0651      2.00000
      5       8.4822      0.00000
      6       8.4823      0.00000
      7       8.4823      0.00000
      8       9.0937      0.00000


--------------------------------------------------------------------------------------------------------


 soft charge-density along one line, spin component           1
         0         1         2         3         4         5         6         7         8         9
 total charge-density along one line

 pseudopotential strength for first ion, spin component:           1
 18.409   0.000  25.684   0.000   0.000   0.000   0.000   0.000   0.000  -0.000   0.000   0.000   0.000   0.000   0.000  -0.000
 25.684   0.000  35.838   0.000   0.000   0.000   0.000   0.000   0.000  -0.000   0.000   0.000   0.000   0.000   0.000  -0.000
  0.000   0.000   0.000   0.000   4.177   0.000  -0.000   0.000  -0.000  -0.000   7.784   0.000  -0.000   0.000  -0.000  -0.000
  0.000   0.000   0.000   0.000  -0.000   0.000   4.177   0.000  -0.000  -0.000  -0.000   0.000   7.784   0.000  -0.000  -0.000
  0.000  -0.000   0.000  -0.000  -0.000  -0.000  -0.000  -0.000   4.177   0.000  -0.000  -0.000  -0.000  -0.000   7.784   0.000
  0.000   0.000   0.000   0.000   7.784   0.000  -0.000   0.000  -0.000  -0.000  14.515   0.000  -0.000   0.000  -0.000  -0.000
  0.000   0.000   0.000   0.000  -0.000   0.000   7.784   0.000  -0.000  -0.000  -0.000   0.000  14.515   0.000  -0.000  -0.000
  0.000  -0.000   0.000  -0.000  -0.000  -0.000  -0.000  -0.000   7.784   0.000  -0.000  -0.000  -0.000  -0.000  14.515   0.000
 total augmentation occupancy for first ion, spin component:           1
  2.000   0.000   0.000   0.000   0.000   0.000   0.000   0.000
  0.000   0.000   0.000   0.000   0.000   0.000   0.000   0.000
  0.000   0.000   0.667   0.000   0.000   0.000   0.000   0.000
  0.000   0.000   0.000   0.667   0.000   0.000   0.000   0.000
  0.000   0.000   0.000   0.000   0.667   0.000   0.000   0.000
  0.000   0.000   0.000   0.000   0.000   0.000   0.000   0.000
  0.000   0.000   0.000   0.000   0.000   0.000   0.000   0.000
  0.000   0.000   0.000   0.000   0.000   0.000   0.000   0.000


------------------------ aborting loop because EDIFF is reached ----------------------------------------





 total charge

# of ion       s       p       d       tot
------------------------------------------
    1        0.675   1.045   0.000   1.720
    2        0.675   1.045   0.000   1.720
--------------------------------------------------
tot          1.351   2.090   0.000   3.441

    CHARGE:  cpu time      0.2690: real time      0.0227
    FORLOC:  cpu time      0.0062: real time      0.0005
    FORNL :  cpu time      0.1265: real time      0.0106
    STRESS:  cpu time      0.5009: real time      0.0421
    FORCOR:  cpu time      0.0983: real time      0.0082
    FORHAR:  cpu time      0.0272: real time      0.0023
    OFIELD:  cpu time      0.0003: real time      0.0000

  FORCE on cell =-STRESS in cart. coord.  units (eV):
  Direction    XX          YY          ZZ          XY          YZ          ZX
  --------------------------------------------------------------------------------------
  Alpha Z     3.29318     3.29318     3.29318
  Ewald     -75.64833   -75.64833   -75.64833     0.00000    -0.00000     0.00000
  Hartree     5.37146     5.37146     5.37146     0.00000     0.00000     0.00000
  E(xc)     -25.48887   -25.48887   -25.48887    -0.00000    -0.00000    -0.00000
  Local     -29.46347   -29.46347   -29.46347     0.00009     0.00009     0.00009
  n-local    77.10375    74.38857    74.25011    -2.08610    -0.55975    -0.72626
  augment   -10.96248   -10.96248   -10.96248    -0.00009    -0.00009    -0.00009
  Kinetic    59.13956    58.02547    58.45449    -1.62641    -0.93458    -1.02774
  Fock        0.00000     0.00000     0.00000     0.00000     0.00000     0.00000
  -------------------------------------------------------------------------------------
  Total       0.88880     0.88880     0.88880     0.00000     0.00000     0.00000
  in kB      34.82684    34.82684    34.82684     0.00000     0.00000     0.00000
  external pressure =       34.83 kB  Pullay stress =        0.00 kB


 VOLUME and BASIS-vectors are now :
 -----------------------------------------------------------------------------
  energy-cutoff  :      100.00
  volume of cell :       40.89
      direct lattice vectors                 reciprocal lattice vectors
     0.000000000  2.734363998  2.734363998    -0.182857879  0.182857879  0.182857879
     2.734363998  0.000000000  2.734363998     0.182857879 -0.182857879  0.182857879
     2.734363998  2.734363998  0.000000000     0.182857879  0.182857879 -0.182857879

  length of vectors
     3.866974650  3.866974650  3.866974650     0.316719136  0.316719136  0.316719136


 FORCES acting on ions
    electron-ion (+dipol)            ewald-force                    non-local-force                 convergence-correction
 -----------------------------------------------------------------------------------------------
   0.127E-04 0.127E-04 0.127E-04   0.494E-15 -.506E-15 -.141E-13   0.880E-16 0.533E-16 0.116E-16   -.269E-07 -.269E-07 -.269E-07
   -.127E-04 -.127E-04 -.127E-04   -.327E-15 -.219E-15 0.141E-13   -.755E-16 -.616E-16 -.108E-16   0.269E-07 0.269E-07 0.269E-07
 -----------------------------------------------------------------------------------------------
   -.571E-14 -.290E-14 -.698E-14   0.167E-15 -.725E-15 0.269E-16   0.125E-16 -.835E-17 0.794E-18   0.113E-14 -.692E-15 -.203E-14


 POSITION                                       TOTAL-FORCE (eV/Angst)
 -----------------------------------------------------------------------------------
      0.00000      0.00000      0.00000        -0.000000     -0.000000     -0.000000
      1.36718      1.36718      1.36718         0.000000      0.000000      0.000000
 -----------------------------------------------------------------------------------
    total drift:                               -0.000000     -0.000000     -0.000000


--------------------------------------------------------------------------------------------------------



  FREE ENERGIE OF THE ION-ELECTRON SYSTEM (eV)
  ---------------------------------------------------
  free  energy   TOTEN  =        -7.91923845 eV

  energy  without entropy=       -7.91923845  energy(sigma->0) =       -7.91923845



--------------------------------------------------------------------------------------------------------


    POTLOK:  cpu time      0.1091: real time      0.0091


--------------------------------------------------------------------------------------------------------


     LOOP+:  cpu time     21.0496: real time      1.7867
    4ORBIT:  cpu time      0.0000: real time      0.0000



 total charge

# of ion       s       p       d       tot
------------------------------------------
    1        0.675   1.045   0.000   1.720
    2        0.675   1.045   0.000   1.720
--------------------------------------------------
tot          1.351   2.090   0.000   3.441


 total amount of memory used by VASP MPI-rank0    36341. kBytes
=======================================================================

   base      :      30000. kBytes
   nonl-proj :        908. kBytes
   fftplans  :       1488. kBytes
   grid      :       1843. kBytes
   one-center:          6. kBytes
   wavefun   :       2096. kBytes

  
  
 General timing and accounting informations for this job:
 ========================================================
  
                  Total CPU time used (sec):       21.411
                            User time (sec):        8.078
                          System time (sec):       13.333
                         Elapsed time (sec):        4.704
  
                   Maximum memory used (kb):       43368.
                   Average memory used (kb):          N/A
  
                          Minor page faults:         7399
                          Major page faults:            0
                 Voluntary context switches:         1332
