 vasp.6.4.1 05Apr23 (build Apr 28 2025 17:05:42) complex                         
 executed on             LinuxGNU date 2025.05.12  15:46:05
 running    1 mpi-ranks, on    1 nodes
 distrk:  each k-point on    1 cores,    1 groups
 distr:  one band on NCORE=   1 cores,    1 groups


--------------------------------------------------------------------------------------------------------


 INCAR:
   SYSTEM = Si
   PREC = Accurate
   ENCUT = 100
   EDIFF = 1.0e-05
   ISMEAR = 0
   SIGMA = 0.02
   LSORBIT = FALSE
   ISTART = 0
   ICHARG = 2
   LORBIT = 11

 POTCAR:    PAW_PBE Si 05Jan2001                  
 POTCAR:    PAW_PBE Si 05Jan2001                  
   SHA256 =  79d9987ad8750f624c4d6acb2a16d13abf6a777132adc04dc6c8399be72b42bb Si/POTCAR             
   COPYR  = (c) Copyright 05Jan2001 Georg Kresse                                                    
   COPYR  = This file is part of the software VASP. Any use, copying, and all other rights are regul
   COPYR  = If you do not have a valid VASP license, you may not use, copy or distribute this file. 
   VRHFIN =Si: s2p2                                                                                 
   LEXCH  = PE                                                                                      
   EATOM  =   103.0669 eV,    7.5752 Ry                                                             
                                                                                                    
   TITEL  = PAW_PBE Si 05Jan2001                                                                    
   LULTRA =        F    use ultrasoft PP ?                                                          
   IUNSCR =        1    unscreen: 0-lin 1-nonlin 2-no                                               
   RPACOR =    1.500    partial core radius                                                         
   POMASS =   28.085; ZVAL   =    4.000    mass and valenz                                          
   RCORE  =    1.900    outmost cutoff radius                                                       
   RWIGS  =    2.480; RWIGS  =    1.312    wigner-seitz radius (au A)                               
   ENMAX  =  245.345; ENMIN  =  184.009 eV                                                          
   ICORE  =        2    local potential                                                             
   LCOR   =        T    correct aug charges                                                         
   LPAW   =        T    paw PP                                                                      
   EAUG   =  322.069                                                                                
   DEXC   =    0.000                                                                                
   RMAX   =    1.950    core radius for proj-oper                                                   
   RAUG   =    1.300    factor for augmentation sphere                                              
   RDEP   =    1.993    radius for radial grids                                                     
   RDEPT  =    1.837    core radius for aug-charge                                                  
                                                                                                    
   Atomic configuration                                                                             
    6 entries                                                                                       
     n  l   j            E        occ.                                                              
     1  0  0.50     -1785.8828   2.0000                                                             
     2  0  0.50      -139.4969   2.0000                                                             
     2  1  1.50       -95.5546   6.0000                                                             
     3  0  0.50       -10.8127   2.0000                                                             
     3  1  0.50        -4.0811   2.0000                                                             
     3  2  1.50        -4.0817   0.0000                                                             
   Description                                                                                      
     l       E           TYP  RCUT    TYP  RCUT                                                     
     0    -10.8127223     23  1.900                                                                 
     0     -7.6451159     23  1.900                                                                 
     1     -4.0811372     23  1.900                                                                 
     1      2.4879257     23  1.900                                                                 
     2     -4.0817478      7  1.900                                                                 
  local pseudopotential read in
  partial core-charges read in
  partial kinetic energy density read in
  atomic valenz-charges read in
  non local Contribution for L=           0  read in
    real space projection operators read in
  non local Contribution for L=           0  read in
    real space projection operators read in
  non local Contribution for L=           1  read in
    real space projection operators read in
  non local Contribution for L=           1  read in
    real space projection operators read in
    PAW grid and wavefunctions read in

   number of l-projection  operators is LMAX  =           4
   number of lm-projection operators is LMMAX =           8

  PAW_PBE Si 05Jan2001                  :
 energy of atom  1       EATOM= -103.0669
 kinetic energy error for atom=    0.1213 (will be added to EATOM!!)


 POSCAR: Si
  positions in cartesian coordinates
  No initial velocities read in
 exchange correlation table for  LEXCH =        8
   RHO(1)=    0.500       N(1)  =     2000
   RHO(2)=  100.500       N(2)  =     4000



--------------------------------------------------------------------------------------------------------


 ion  position               nearest neighbor table
   1  0.000  0.000  0.000-   2 2.37   2 2.37   2 2.37   2 2.37
   2  0.250  0.250  0.250-   1 2.37   1 2.37   1 2.37   1 2.37

  LATTYP: Found a face centered cubic cell.
 ALAT       =     5.4687279960
  
  Lattice vectors:
  
 A1 = (   0.0000000000,   2.7343639980,   2.7343639980)
 A2 = (   2.7343639980,   0.0000000000,   2.7343639980)
 A3 = (   2.7343639980,   2.7343639980,   0.0000000000)


Analysis of symmetry for initial positions (statically):
=====================================================================
 Subroutine PRICEL returns:
 Original cell was already a primitive cell.
 

 Routine SETGRP: Setting up the symmetry group for a 
 face centered cubic supercell.


 Subroutine GETGRP returns: Found 48 space group operations
 (whereof 24 operations were pure point group operations)
 out of a pool of 48 trial point group operations.


The static configuration has the point symmetry T_d .
 The point group associated with its full space group is O_h .


Analysis of symmetry for dynamics (positions and initial velocities):
=====================================================================
 Subroutine PRICEL returns:
 Original cell was already a primitive cell.
 

 Routine SETGRP: Setting up the symmetry group for a 
 face centered cubic supercell.


 Subroutine GETGRP returns: Found 48 space group operations
 (whereof 24 operations were pure point group operations)
 out of a pool of 48 trial point group operations.


The dynamic configuration has the point symmetry T_d .
 The point group associated with its full space group is O_h .


 Subroutine INISYM returns: Found 48 space group operations
 (whereof 24 operations are pure point group operations),
 and found     1 'primitive' translations


----------------------------------------------------------------------------------------

                                     Primitive cell                                     

  volume of cell :      40.8883

  direct lattice vectors                    reciprocal lattice vectors
     0.000000000  2.734363998  2.734363998    -0.182857879  0.182857879  0.182857879
     2.734363998  0.000000000  2.734363998     0.182857879 -0.182857879  0.182857879
     2.734363998  2.734363998  0.000000000     0.182857879  0.182857879 -0.182857879

  length of vectors
     3.866974650  3.866974650  3.866974650     0.316719136  0.316719136  0.316719136

  position of ions in fractional coordinates (direct lattice)
     0.000000000  0.000000000  0.000000000
     0.250000000  0.250000000  0.250000000

  ion indices of the primitive-cell ions
   primitive index   ion index
                 1           1
                 2           2

----------------------------------------------------------------------------------------



 KPOINTS: k-points                                

Automatic generation of k-mesh.
 Grid dimensions read from file:
 generate k-points for:    2    2    2

 Generating k-lattice:

  Cartesian coordinates                     Fractional coordinates (reciprocal lattice)
    -0.091428939  0.091428939  0.091428939     0.500000000 -0.000000000  0.000000000
     0.091428939 -0.091428939  0.091428939    -0.000000000  0.500000000 -0.000000000
     0.091428939  0.091428939 -0.091428939     0.000000000  0.000000000  0.500000000

  Length of vectors
     0.158359568  0.158359568  0.158359568

  Shift w.r.t. Gamma in fractional coordinates (k-lattice)
     0.000000000  0.000000000  0.000000000

 
 Subroutine IBZKPT returns following result:
 ===========================================
 
 Found      3 irreducible k-points:
 
 Following reciprocal coordinates:
            Coordinates               Weight
  0.000000  0.000000  0.000000      1.000000
  0.500000  0.000000  0.000000      4.000000
  0.500000  0.500000  0.000000      3.000000
 
 Following cartesian coordinates:
            Coordinates               Weight
  0.000000  0.000000  0.000000      1.000000
 -0.091429  0.091429  0.091429      4.000000
  0.000000  0.000000  0.182858      3.000000
 


--------------------------------------------------------------------------------------------------------




 Dimension of arrays:
   k-points           NKPTS =      3   k-points in BZ     NKDIM =      3   number of bands    NBANDS=      8
   number of dos      NEDOS =    301   number of ions     NIONS =      2
   non local maximal  LDIM  =      4   non local SUM 2l+1 LMDIM =      8
   total plane-waves  NPLWV =   2744
   max r-space proj   IRMAX =      1   max aug-charges    IRDMAX=   2443
   dimension x,y,z NGX =    14 NGY =   14 NGZ =   14
   dimension x,y,z NGXF=    28 NGYF=   28 NGZF=   28
   support grid    NGXF=    28 NGYF=   28 NGZF=   28
   ions per type =               2
   NGX,Y,Z   is equivalent  to a cutoff of   6.02,  6.02,  6.02 a.u.
   NGXF,Y,Z  is equivalent  to a cutoff of  12.04, 12.04, 12.04 a.u.

 SYSTEM =  Si                                      
 POSCAR =  Si                                      

 Startparameter for this run:
   NWRITE =      2    write-flag & timer
   PREC   = accura    normal or accurate (medium, high low for compatibility)
   ISTART =      0    job   : 0-new  1-cont  2-samecut
   ICHARG =      2    charge: 1-file 2-atom 10-const
   ISPIN  =      1    spin polarized calculation?
   LNONCOLLINEAR =      F non collinear calculations
   LSORBIT =      F    spin-orbit coupling
   INIWAV =      1    electr: 0-lowe 1-rand  2-diag
   LASPH  =      F    aspherical Exc in radial PAW
 Electronic Relaxation 1
   ENCUT  =  100.0 eV   7.35 Ry    2.71 a.u.   3.15  3.15  3.15*2*pi/ulx,y,z
   ENINI  =  100.0     initial cutoff
   ENAUG  =  322.1 eV  augmentation charge cutoff
   NELM   =     60;   NELMIN=  2; NELMDL= -5     # of ELM steps 
   EDIFF  = 0.1E-04   stopping-criterion for ELM
   LREAL  =      F    real-space projection
   NLSPLINE    = F    spline interpolate recip. space projectors
   LCOMPAT=      F    compatible to vasp.4.4
   GGA_COMPAT  = T    GGA compatible to vasp.4.4-vasp.4.6
   LMAXPAW     = -100 max onsite density
   LMAXMIX     =    2 max onsite mixed and CHGCAR
   VOSKOWN=      0    Vosko Wilk Nusair interpolation
   ROPT   =    0.00000
 Ionic relaxation
   EDIFFG = 0.1E-03   stopping-criterion for IOM
   NSW    =      0    number of steps for IOM
   NBLOCK =      1;   KBLOCK =      1    inner block; outer block 
   IBRION =     -1    ionic relax: 0-MD 1-quasi-New 2-CG
   NFREE  =      0    steps in history (QN), initial steepest desc. (CG)
   ISIF   =      2    stress and relaxation
   IWAVPR =     10    prediction:  0-non 1-charg 2-wave 3-comb
   ISYM   =      2    0-nonsym 1-usesym 2-fastsym
   LCORR  =      T    Harris-Foulkes like correction to forces

   POTIM  = 0.5000    time-step for ionic-motion
   TEIN   =    0.0    initial temperature
   TEBEG  =    0.0;   TEEND  =   0.0 temperature during run
   SMASS  =  -3.00    Nose mass-parameter (am)
   estimated Nose-frequenzy (Omega)   =  0.10E-29 period in steps = 0.13E+47 mass=  -0.342E-27a.u.
   SCALEE = 1.0000    scale energy and forces
   NPACO  =    256;   APACO  = 10.0  distance and # of slots for P.C.
   PSTRESS=    0.0 pullay stress

  Mass of Ions in am
   POMASS =  28.09
  Ionic Valenz
   ZVAL   =   4.00
  Atomic Wigner-Seitz radii
   RWIGS  =  -1.00
  virtual crystal weights 
   VCA    =   1.00
   NELECT =       8.0000    total number of electrons
   NUPDOWN=      -1.0000    fix difference up-down

 DOS related values:
   EMIN   =  10.00;   EMAX   =-10.00  energy-range for DOS
   EFERMI =   0.00;   METHOD = LEGACY      
   ISMEAR =     0;   SIGMA  =   0.02  broadening in eV -4-tet -1-fermi 0-gaus

 Electronic relaxation 2 (details)
   IALGO  =     38    algorithm
   LDIAG  =      T    sub-space diagonalisation (order eigenvalues)
   LSUBROT=      F    optimize rotation matrix (better conditioning)
   TURBO    =      0    0=normal 1=particle mesh
   IRESTART =      0    0=no restart 2=restart with 2 vectors
   NREBOOT  =      0    no. of reboots
   NMIN     =      0    reboot dimension
   EREF     =   0.00    reference energy to select bands
   IMIX   =      4    mixing-type and parameters
     AMIX     =   0.40;   BMIX     =  1.00
     AMIX_MAG =   1.60;   BMIX_MAG =  1.00
     AMIN     =   0.10
     WC   =   100.;   INIMIX=   1;  MIXPRE=   1;  MAXMIX= -45

 Intra band minimization:
   WEIMIN = 0.0000     energy-eigenvalue tresh-hold
   EBREAK =  0.31E-06  absolut break condition
   DEPER  =   0.30     relativ break condition  

   TIME   =   0.40     timestep for ELM

  volume/ion in A,a.u.               =      20.44       137.96
  Fermi-wavevector in a.u.,A,eV,Ry     =   0.950397  1.795990 12.289529  0.903255
  Thomas-Fermi vector in A             =   2.078770

 Write flags
   LWAVE        =      T    write WAVECAR
   LDOWNSAMPLE  =      F    k-point downsampling of WAVECAR
   LCHARG       =      T    write CHGCAR
   LVTOT        =      F    write LOCPOT, total local potential
   LVHAR        =      F    write LOCPOT, Hartree potential only
   LELF         =      F    write electronic localiz. function (ELF)
   LORBIT       =     11    0 simple, 1 ext, 2 COOP (PROOUT), +10 PAW based schemes


 Dipole corrections
   LMONO  =      F    monopole corrections only (constant potential shift)
   LDIPOL =      F    correct potential (dipole corrections)
   IDIPOL =      0    1-x, 2-y, 3-z, 4-all directions 
   EPSILON=  1.0000000 bulk dielectric constant

 Exchange correlation treatment:
   GGA     =    --    GGA type
   LEXCH   =     8    internal setting for exchange type
   LIBXC   =     F    Libxc                    
   VOSKOWN =     0    Vosko Wilk Nusair interpolation
   LHFCALC =     F    Hartree Fock is set to
   LHFONE  =     F    Hartree Fock one center treatment
   AEXX    =    0.0000 exact exchange contribution

 Linear response parameters
   LEPSILON=     F    determine dielectric tensor
   LRPA    =     F    only Hartree local field effects (RPA)
   LNABLA  =     F    use nabla operator in PAW spheres
   LVEL    =     F    velocity operator in full k-point grid
   CSHIFT  =0.1000    complex shift for real part using Kramers Kronig
   OMEGAMAX=  -1.0    maximum frequency
   DEG_THRESHOLD= 0.2000000E-02 threshold for treating states as degnerate
   RTIME   =   -0.100 relaxation time in fs
  (WPLASMAI=    0.000 imaginary part of plasma frequency in eV, 0.658/RTIME)
   DFIELD  = 0.0000000 0.0000000 0.0000000 field for delta impulse in time

  Optional k-point grid parameters
   LKPOINTS_OPT  =     F    use optional k-point grid
   KPOINTS_OPT_MODE=     1    mode for optional k-point grid

 Orbital magnetization related:
   ORBITALMAG=     F  switch on orbital magnetization
   LCHIMAG   =     F  perturbation theory with respect to B field
   DQ        =  0.001000  dq finite difference perturbation B field
   LLRAUG    =     F  two centre corrections for induced B field
   LBONE     =     F  B-component reconstruction in AE one-centre
   LVGVCALC  =     T  calculate vGv susceptibility
   LVGVAPPL  =     F  apply vGv susceptibility instead of pGv for G=0

 Random number generation:
   RANDOM_GENERATOR = DEFAULT
   PCG_SEED         = not used


--------------------------------------------------------------------------------------------------------


 Static calculation
 charge density and potential will be updated during run
 non-spin polarized calculation
 Variant of blocked Davidson
 Davidson routine will perform the subspace rotation
 perform sub-space diagonalisation
    after iterative eigenvector-optimisation
 modified Broyden-mixing scheme, WC =      100.0
 initial mixing is a Kerker type mixing with AMIX =  0.4000 and BMIX =      1.0000
 Hartree-type preconditioning will be used
 using additional bands            4
 reciprocal scheme for non local part
 use partial core corrections
 calculate Harris-corrections to forces   (improved forces if not selfconsistent)
 use gradient corrections 
 use of overlap-Matrix (Vanderbilt PP)
 Gauss-broadening in eV      SIGMA  =   0.02


--------------------------------------------------------------------------------------------------------


  energy-cutoff  :      100.00
  volume of cell :       40.89
      direct lattice vectors                 reciprocal lattice vectors
     0.000000000  2.734363998  2.734363998    -0.182857879  0.182857879  0.182857879
     2.734363998  0.000000000  2.734363998     0.182857879 -0.182857879  0.182857879
     2.734363998  2.734363998  0.000000000     0.182857879  0.182857879 -0.182857879

  length of vectors
     3.866974650  3.866974650  3.866974650     0.316719136  0.316719136  0.316719136



 k-points in units of 2pi/SCALE and weight: k-points                                
   0.00000000  0.00000000  0.00000000       0.125
  -0.09142894  0.09142894  0.09142894       0.500
   0.00000000  0.00000000  0.18285788       0.375

 k-points in reciprocal lattice and weights: k-points                                
   0.00000000  0.00000000  0.00000000       0.125
   0.50000000  0.00000000  0.00000000       0.500
   0.50000000  0.50000000  0.00000000       0.375

 position of ions in fractional coordinates (direct lattice) 
   0.00000000  0.00000000  0.00000000
   0.25000000  0.25000000  0.25000000

 position of ions in cartesian coordinates  (Angst):
   0.00000000  0.00000000  0.00000000
   1.36718200  1.36718200  1.36718200



--------------------------------------------------------------------------------------------------------


 k-point   1 :   0.0000 0.0000 0.0000  plane waves:      89
 k-point   2 :   0.5000 0.0000 0.0000  plane waves:      90
 k-point   3 :   0.5000 0.5000 0.0000  plane waves:      92

 maximum and minimum number of plane-waves per node :        92       89

 maximum number of plane-waves:        92
 maximum index in each direction: 
   IXMAX=    3   IYMAX=    3   IZMAX=    3
   IXMIN=   -3   IYMIN=   -3   IZMIN=   -3


 serial   3D FFT for wavefunctions
 parallel 3D FFT for charge:
    minimum data exchange during FFTs selected (reduces bandwidth)


 total amount of memory used by VASP MPI-rank0    33398. kBytes
=======================================================================

   base      :      30000. kBytes
   nonl-proj :         20. kBytes
   fftplans  :       1488. kBytes
   grid      :       1843. kBytes
   one-center:          6. kBytes
   wavefun   :         41. kBytes

     INWAV:  cpu time      0.0000: real time      0.0000
 Broyden mixing: mesh for mixing (old mesh)
   NGX =  7   NGY =  7   NGZ =  7
  (NGX  = 28   NGY  = 28   NGZ  = 28)
  gives a total of    343 points

 initial charge density was supplied:
 charge density of overlapping atoms calculated
 number of electron       8.0000000 magnetization 
 keeping initial charge density in first step


--------------------------------------------------------------------------------------------------------


 Maximum index for augmentation-charges         2171 (set IRDMAX)


--------------------------------------------------------------------------------------------------------


 First call to EWALD:  gamma=   0.514
 Maximum number of real-space cells 3x 3x 3
 Maximum number of reciprocal cells 3x 3x 3

    FEWALD:  cpu time      0.0003: real time      0.0003


--------------------------------------- Ionic step        1  -------------------------------------------




--------------------------------------- Iteration      1(   1)  ---------------------------------------


    POTLOK:  cpu time      0.0053: real time      0.0054
    SETDIJ:  cpu time      0.0009: real time      0.0009
     EDDAV:  cpu time      0.0742: real time      0.0074
       DOS:  cpu time      0.0008: real time      0.0001
    --------------------------------------------
      LOOP:  cpu time      0.0812: real time      0.0138

 eigenvalue-minimisations  :    48
 total energy-change (2. order) :-0.2479478E+01  (-0.1487155E+03)
 number of electron       8.0000000 magnetization 
 augmentation part        8.0000000 magnetization 

 Free energy of the ion-electron system (eV)
  ---------------------------------------------------
  alpha Z        PSCENC =         3.29318037
  Ewald energy   TEWEN  =      -226.94490223
  -Hartree energ DENC   =       -11.32338905
  -exchange      EXHF   =         0.00000000
  -V(xc)+E(xc)   XCENC  =       -18.68501491
  PAW double counting   =       176.24759923     -141.06103558
  entropy T*S    EENTRO =        -0.00385656
  eigenvalues    EBANDS =        10.10679082
  atomic energy  EATOM  =       205.89114989
  Solvation  Ediel_sol  =         0.00000000
  ---------------------------------------------------
  free energy    TOTEN  =        -2.47947801 eV

  energy without entropy =       -2.47562145  energy(sigma->0) =       -2.47754973


--------------------------------------------------------------------------------------------------------




--------------------------------------- Iteration      1(   2)  ---------------------------------------


     EDDAV:  cpu time      0.1422: real time      0.0121
       DOS:  cpu time      0.0007: real time      0.0001
    --------------------------------------------
      LOOP:  cpu time      0.1428: real time      0.0122

 eigenvalue-minimisations  :    88
 total energy-change (2. order) :-0.5859546E+01  (-0.5604791E+01)
 number of electron       8.0000000 magnetization 
 augmentation part        8.0000000 magnetization 

 Free energy of the ion-electron system (eV)
  ---------------------------------------------------
  alpha Z        PSCENC =         3.29318037
  Ewald energy   TEWEN  =      -226.94490223
  -Hartree energ DENC   =       -11.32338905
  -exchange      EXHF   =         0.00000000
  -V(xc)+E(xc)   XCENC  =       -18.68501491
  PAW double counting   =       176.24759923     -141.06103558
  entropy T*S    EENTRO =        -0.00000000
  eigenvalues    EBANDS =         4.24338795
  atomic energy  EATOM  =       205.89114989
  Solvation  Ediel_sol  =         0.00000000
  ---------------------------------------------------
  free energy    TOTEN  =        -8.33902432 eV

  energy without entropy =       -8.33902432  energy(sigma->0) =       -8.33902432


--------------------------------------------------------------------------------------------------------




--------------------------------------- Iteration      1(   3)  ---------------------------------------


     EDDAV:  cpu time      0.1000: real time      0.0088
       DOS:  cpu time      0.0006: real time      0.0001
    --------------------------------------------
      LOOP:  cpu time      0.1006: real time      0.0088

 eigenvalue-minimisations  :    56
 total energy-change (2. order) :-0.2794726E-01  (-0.2794726E-01)
 number of electron       8.0000000 magnetization 
 augmentation part        8.0000000 magnetization 

 Free energy of the ion-electron system (eV)
  ---------------------------------------------------
  alpha Z        PSCENC =         3.29318037
  Ewald energy   TEWEN  =      -226.94490223
  -Hartree energ DENC   =       -11.32338905
  -exchange      EXHF   =         0.00000000
  -V(xc)+E(xc)   XCENC  =       -18.68501491
  PAW double counting   =       176.24759923     -141.06103558
  entropy T*S    EENTRO =        -0.00000000
  eigenvalues    EBANDS =         4.21544069
  atomic energy  EATOM  =       205.89114989
  Solvation  Ediel_sol  =         0.00000000
  ---------------------------------------------------
  free energy    TOTEN  =        -8.36697158 eV

  energy without entropy =       -8.36697158  energy(sigma->0) =       -8.36697158


--------------------------------------------------------------------------------------------------------




--------------------------------------- Iteration      1(   4)  ---------------------------------------


     EDDAV:  cpu time      0.0898: real time      0.0076
       DOS:  cpu time      0.0004: real time      0.0000
    --------------------------------------------
      LOOP:  cpu time      0.0902: real time      0.0076

 eigenvalue-minimisations  :    56
 total energy-change (2. order) :-0.2352978E-04  (-0.2352978E-04)
 number of electron       8.0000000 magnetization 
 augmentation part        8.0000000 magnetization 

 Free energy of the ion-electron system (eV)
  ---------------------------------------------------
  alpha Z        PSCENC =         3.29318037
  Ewald energy   TEWEN  =      -226.94490223
  -Hartree energ DENC   =       -11.32338905
  -exchange      EXHF   =         0.00000000
  -V(xc)+E(xc)   XCENC  =       -18.68501491
  PAW double counting   =       176.24759923     -141.06103558
  entropy T*S    EENTRO =        -0.00000000
  eigenvalues    EBANDS =         4.21541716
  atomic energy  EATOM  =       205.89114989
  Solvation  Ediel_sol  =         0.00000000
  ---------------------------------------------------
  free energy    TOTEN  =        -8.36699511 eV

  energy without entropy =       -8.36699511  energy(sigma->0) =       -8.36699511


--------------------------------------------------------------------------------------------------------




--------------------------------------- Iteration      1(   5)  ---------------------------------------


     EDDAV:  cpu time      0.0847: real time      0.0071
       DOS:  cpu time      0.0003: real time      0.0000
    CHARGE:  cpu time      0.0161: real time      0.0013
    MIXING:  cpu time      0.0036: real time      0.0003
    --------------------------------------------
      LOOP:  cpu time      0.1047: real time      0.0088

 eigenvalue-minimisations  :    56
 total energy-change (2. order) :-0.8307569E-07  (-0.8307551E-07)
 number of electron       8.0000020 magnetization 
 augmentation part       -0.4345503 magnetization 

 Broyden mixing:
  rms(total) = 0.10103E+01    rms(broyden)= 0.10101E+01
  rms(prec ) = 0.14794E+01
  weight for this iteration     100.00

 Free energy of the ion-electron system (eV)
  ---------------------------------------------------
  alpha Z        PSCENC =         3.29318037
  Ewald energy   TEWEN  =      -226.94490223
  -Hartree energ DENC   =       -11.32338905
  -exchange      EXHF   =         0.00000000
  -V(xc)+E(xc)   XCENC  =       -18.68501491
  PAW double counting   =       176.24759923     -141.06103558
  entropy T*S    EENTRO =        -0.00000000
  eigenvalues    EBANDS =         4.21541708
  atomic energy  EATOM  =       205.89114989
  Solvation  Ediel_sol  =         0.00000000
  ---------------------------------------------------
  free energy    TOTEN  =        -8.36699519 eV

  energy without entropy =       -8.36699519  energy(sigma->0) =       -8.36699519


--------------------------------------------------------------------------------------------------------




--------------------------------------- Iteration      1(   6)  ---------------------------------------


    POTLOK:  cpu time      0.0834: real time      0.0070
    SETDIJ:  cpu time      0.0136: real time      0.0011
     EDDAV:  cpu time      0.0809: real time      0.0068
       DOS:  cpu time      0.0004: real time      0.0000
    CHARGE:  cpu time      0.0167: real time      0.0014
    MIXING:  cpu time      0.0119: real time      0.0010
    --------------------------------------------
      LOOP:  cpu time      0.2070: real time      0.0175

 eigenvalue-minimisations  :    56
 total energy-change (2. order) : 0.2164691E+00  (-0.1142925E-01)
 number of electron       8.0000019 magnetization 
 augmentation part       -0.4261389 magnetization 

 Broyden mixing:
  rms(total) = 0.62458E+00    rms(broyden)= 0.62456E+00
  rms(prec ) = 0.90201E+00
  weight for this iteration     100.00

 eigenvalues of (default mixing * dielectric matrix)
  average eigenvalue GAMMA=   2.6119
  2.6119

 Free energy of the ion-electron system (eV)
  ---------------------------------------------------
  alpha Z        PSCENC =         3.29318037
  Ewald energy   TEWEN  =      -226.94490223
  -Hartree energ DENC   =       -13.41246564
  -exchange      EXHF   =         0.00000000
  -V(xc)+E(xc)   XCENC  =       -18.35794385
  PAW double counting   =       660.23806852     -625.16606332
  entropy T*S    EENTRO =        -0.00000000
  eigenvalues    EBANDS =         6.30845018
  atomic energy  EATOM  =       205.89114989
  Solvation  Ediel_sol  =         0.00000000
  ---------------------------------------------------
  free energy    TOTEN  =        -8.15052607 eV

  energy without entropy =       -8.15052607  energy(sigma->0) =       -8.15052607


--------------------------------------------------------------------------------------------------------




--------------------------------------- Iteration      1(   7)  ---------------------------------------


    POTLOK:  cpu time      0.0803: real time      0.0067
    SETDIJ:  cpu time      0.0134: real time      0.0011
     EDDAV:  cpu time      0.0711: real time      0.0059
       DOS:  cpu time      0.0004: real time      0.0000
    CHARGE:  cpu time      0.0141: real time      0.0012
    MIXING:  cpu time      0.0037: real time      0.0003
    --------------------------------------------
      LOOP:  cpu time      0.1829: real time      0.0153

 eigenvalue-minimisations  :    48
 total energy-change (2. order) : 0.1047007E+00  (-0.2452795E-01)
 number of electron       8.0000019 magnetization 
 augmentation part       -0.4156302 magnetization 

 Broyden mixing:
  rms(total) = 0.30294E-01    rms(broyden)= 0.30185E-01
  rms(prec ) = 0.56265E-01
  weight for this iteration     100.00

 eigenvalues of (default mixing * dielectric matrix)
  average eigenvalue GAMMA=   2.2342
  1.9406  2.5278

 Free energy of the ion-electron system (eV)
  ---------------------------------------------------
  alpha Z        PSCENC =         3.29318037
  Ewald energy   TEWEN  =      -226.94490223
  -Hartree energ DENC   =       -17.24854426
  -exchange      EXHF   =         0.00000000
  -V(xc)+E(xc)   XCENC  =       -17.74773299
  PAW double counting   =      2190.00773935    -2155.08969247
  entropy T*S    EENTRO =        -0.00000000
  eigenvalues    EBANDS =         9.79297692
  atomic energy  EATOM  =       205.89114989
  Solvation  Ediel_sol  =         0.00000000
  ---------------------------------------------------
  free energy    TOTEN  =        -8.04582541 eV

  energy without entropy =       -8.04582541  energy(sigma->0) =       -8.04582541


--------------------------------------------------------------------------------------------------------




--------------------------------------- Iteration      1(   8)  ---------------------------------------


    POTLOK:  cpu time      0.0794: real time      0.0066
    SETDIJ:  cpu time      0.0162: real time      0.0014
     EDDAV:  cpu time      0.0720: real time      0.0060
       DOS:  cpu time      0.0004: real time      0.0000
    CHARGE:  cpu time      0.0141: real time      0.0012
    MIXING:  cpu time      0.0050: real time      0.0004
    --------------------------------------------
      LOOP:  cpu time      0.1870: real time      0.0157

 eigenvalue-minimisations  :    48
 total energy-change (2. order) :-0.4191741E-02  (-0.4920247E-03)
 number of electron       8.0000019 magnetization 
 augmentation part       -0.4166340 magnetization 

 Broyden mixing:
  rms(total) = 0.55683E-02    rms(broyden)= 0.55571E-02
  rms(prec ) = 0.14663E-01
  weight for this iteration     100.00

 eigenvalues of (default mixing * dielectric matrix)
  average eigenvalue GAMMA=   2.0555
  1.1039  2.5313  2.5313

 Free energy of the ion-electron system (eV)
  ---------------------------------------------------
  alpha Z        PSCENC =         3.29318037
  Ewald energy   TEWEN  =      -226.94490223
  -Hartree energ DENC   =       -17.18776240
  -exchange      EXHF   =         0.00000000
  -V(xc)+E(xc)   XCENC  =       -17.74697338
  PAW double counting   =      2234.61025309    -2199.65587587
  entropy T*S    EENTRO =        -0.00000000
  eigenvalues    EBANDS =         9.69091337
  atomic energy  EATOM  =       205.89114989
  Solvation  Ediel_sol  =         0.00000000
  ---------------------------------------------------
  free energy    TOTEN  =        -8.05001715 eV

  energy without entropy =       -8.05001715  energy(sigma->0) =       -8.05001715


--------------------------------------------------------------------------------------------------------




--------------------------------------- Iteration      1(   9)  ---------------------------------------


    POTLOK:  cpu time      0.0806: real time      0.0068
    SETDIJ:  cpu time      0.0140: real time      0.0012
     EDDAV:  cpu time      0.0721: real time      0.0060
       DOS:  cpu time      0.0004: real time      0.0000
    CHARGE:  cpu time      0.0141: real time      0.0012
    MIXING:  cpu time      0.0038: real time      0.0003
    --------------------------------------------
      LOOP:  cpu time      0.1851: real time      0.0155

 eigenvalue-minimisations  :    48
 total energy-change (2. order) :-0.6101705E-03  (-0.4528753E-04)
 number of electron       8.0000019 magnetization 
 augmentation part       -0.4168454 magnetization 

 Broyden mixing:
  rms(total) = 0.28974E-02    rms(broyden)= 0.28966E-02
  rms(prec ) = 0.60863E-02
  weight for this iteration     100.00

 eigenvalues of (default mixing * dielectric matrix)
  average eigenvalue GAMMA=   2.1162
  3.0422  0.9174  2.2525  2.2525

 Free energy of the ion-electron system (eV)
  ---------------------------------------------------
  alpha Z        PSCENC =         3.29318037
  Ewald energy   TEWEN  =      -226.94490223
  -Hartree energ DENC   =       -17.22184703
  -exchange      EXHF   =         0.00000000
  -V(xc)+E(xc)   XCENC  =       -17.74008788
  PAW double counting   =      2249.33924774    -2214.37930092
  entropy T*S    EENTRO =        -0.00000000
  eigenvalues    EBANDS =         9.71193273
  atomic energy  EATOM  =       205.89114989
  Solvation  Ediel_sol  =         0.00000000
  ---------------------------------------------------
  free energy    TOTEN  =        -8.05062732 eV

  energy without entropy =       -8.05062732  energy(sigma->0) =       -8.05062732


--------------------------------------------------------------------------------------------------------




--------------------------------------- Iteration      1(  10)  ---------------------------------------


    POTLOK:  cpu time      0.0833: real time      0.0070
    SETDIJ:  cpu time      0.0141: real time      0.0012
     EDDAV:  cpu time      0.0709: real time      0.0059
       DOS:  cpu time      0.0004: real time      0.0000
    CHARGE:  cpu time      0.0141: real time      0.0012
    MIXING:  cpu time      0.0040: real time      0.0003
    --------------------------------------------
      LOOP:  cpu time      0.1867: real time      0.0157

 eigenvalue-minimisations  :    48
 total energy-change (2. order) :-0.7693195E-04  (-0.9485302E-05)
 number of electron       8.0000019 magnetization 
 augmentation part       -0.4167800 magnetization 

 Broyden mixing:
  rms(total) = 0.57956E-03    rms(broyden)= 0.57864E-03
  rms(prec ) = 0.10656E-02
  weight for this iteration     100.00

 eigenvalues of (default mixing * dielectric matrix)
  average eigenvalue GAMMA=   1.9776
  3.1665  2.4628  2.1837  1.0376  1.0376

 Free energy of the ion-electron system (eV)
  ---------------------------------------------------
  alpha Z        PSCENC =         3.29318037
  Ewald energy   TEWEN  =      -226.94490223
  -Hartree energ DENC   =       -17.25600889
  -exchange      EXHF   =         0.00000000
  -V(xc)+E(xc)   XCENC  =       -17.73602662
  PAW double counting   =      2244.76553020    -2209.80716373
  entropy T*S    EENTRO =        -0.00000000
  eigenvalues    EBANDS =         9.74353675
  atomic energy  EATOM  =       205.89114989
  Solvation  Ediel_sol  =         0.00000000
  ---------------------------------------------------
  free energy    TOTEN  =        -8.05070425 eV

  energy without entropy =       -8.05070425  energy(sigma->0) =       -8.05070425


--------------------------------------------------------------------------------------------------------




--------------------------------------- Iteration      1(  11)  ---------------------------------------


    POTLOK:  cpu time      0.0824: real time      0.0069
    SETDIJ:  cpu time      0.0140: real time      0.0012
     EDDAV:  cpu time      0.0629: real time      0.0053
       DOS:  cpu time      0.0004: real time      0.0000
    --------------------------------------------
      LOOP:  cpu time      0.1597: real time      0.0134

 eigenvalue-minimisations  :    40
 total energy-change (2. order) :-0.4197898E-06  (-0.1310286E-06)
 number of electron       8.0000019 magnetization 
 augmentation part       -0.4167800 magnetization 

 Free energy of the ion-electron system (eV)
  ---------------------------------------------------
  alpha Z        PSCENC =         3.29318037
  Ewald energy   TEWEN  =      -226.94490223
  -Hartree energ DENC   =       -17.25550015
  -exchange      EXHF   =         0.00000000
  -V(xc)+E(xc)   XCENC  =       -17.73640064
  PAW double counting   =      2242.70610078    -2207.74767776
  entropy T*S    EENTRO =        -0.00000000
  eigenvalues    EBANDS =         9.74334505
  atomic energy  EATOM  =       205.89114989
  Solvation  Ediel_sol  =         0.00000000
  ---------------------------------------------------
  free energy    TOTEN  =        -8.05070467 eV

  energy without entropy =       -8.05070467  energy(sigma->0) =       -8.05070467


--------------------------------------------------------------------------------------------------------




 average (electrostatic) potential at core
  the test charge radii are     0.9892
  (the norm of the test charge is              1.0000)
       1 -83.1818       2 -83.1818



 E-fermi :   6.1723     XC(G=0):  -9.1490     alpha+bet :-11.7317

 Fermi energy:         6.1723072743

 k-point     1 :       0.0000    0.0000    0.0000
  band No.  band energies     occupation 
      1      -5.9782      2.00000
      2       6.0650      2.00000
      3       6.0651      2.00000
      4       6.0651      2.00000
      5       8.4823      0.00000
      6       8.4823      0.00000
      7       8.4823      0.00000
      8       9.0936      0.00000

 k-point     2 :       0.5000    0.0000    0.0000
  band No.  band energies     occupation 
      1      -3.6648      2.00000
      2      -1.0205      2.00000
      3       4.7697      2.00000
      4       4.7697      2.00000
      5       7.4313      0.00000
      6       9.3650      0.00000
      7       9.3650      0.00000
      8      13.6005      0.00000

 k-point     3 :       0.5000    0.5000    0.0000
  band No.  band energies     occupation 
      1      -1.8663      2.00000
      2      -1.8663      2.00000
      3       3.0896      2.00000
      4       3.0896      2.00000
      5       6.7114      0.00000
      6       6.7114      0.00000
      7      16.0236      0.00000
      8      16.0236      0.00000


--------------------------------------------------------------------------------------------------------


 soft charge-density along one line, spin component           1
         0         1         2         3         4         5         6         7         8         9
 total charge-density along one line

 pseudopotential strength for first ion, spin component:           1
 18.409   0.000  25.684   0.000   0.000   0.000   0.000   0.000   0.000  -0.000   0.000   0.000   0.000   0.000   0.000  -0.000
 25.684   0.000  35.838   0.000   0.000   0.000   0.000   0.000   0.000  -0.000   0.000   0.000   0.000   0.000   0.000  -0.000
  0.000   0.000   0.000   0.000   4.177   0.000  -0.000   0.000  -0.000  -0.000   7.784   0.000  -0.000   0.000  -0.000  -0.000
  0.000   0.000   0.000   0.000  -0.000   0.000   4.177   0.000  -0.000  -0.000  -0.000   0.000   7.784   0.000  -0.000  -0.000
  0.000  -0.000   0.000  -0.000  -0.000  -0.000  -0.000  -0.000   4.177  -0.000  -0.000  -0.000  -0.000  -0.000   7.784  -0.000
  0.000   0.000   0.000   0.000   7.784   0.000  -0.000   0.000  -0.000  -0.000  14.515   0.000  -0.000   0.000  -0.000  -0.000
  0.000   0.000   0.000   0.000  -0.000   0.000   7.784   0.000  -0.000  -0.000  -0.000   0.000  14.515   0.000  -0.000  -0.000
  0.000  -0.000   0.000  -0.000  -0.000  -0.000  -0.000  -0.000   7.784  -0.000  -0.000  -0.000  -0.000  -0.000  14.515  -0.000
 total augmentation occupancy for first ion, spin component:           1
  3.031  -0.816  -0.000  -0.000  -0.000   0.000   0.000   0.000
 -0.816   0.288   0.000   0.000   0.000  -0.000  -0.000  -0.000
 -0.000   0.000   7.225   0.000  -0.000  -2.396  -0.000   0.000
 -0.000   0.000   0.000   7.225  -0.000  -0.000  -2.396   0.000
 -0.000   0.000  -0.000  -0.000   7.225   0.000  -0.000  -2.396
  0.000  -0.000  -2.396  -0.000   0.000   0.800   0.000  -0.000
  0.000  -0.000  -0.000  -2.396  -0.000   0.000   0.800   0.000
  0.000  -0.000   0.000   0.000  -2.396  -0.000   0.000   0.800


------------------------ aborting loop because EDIFF is reached ----------------------------------------





 total charge

# of ion       s       p       d       tot
------------------------------------------
    1        0.644   1.109   0.000   1.752
    2        0.644   1.109   0.000   1.752
--------------------------------------------------
tot          1.287   2.217   0.000   3.505

    CHARGE:  cpu time      0.0142: real time      0.0012
    FORLOC:  cpu time      0.0059: real time      0.0005
    FORNL :  cpu time      0.0133: real time      0.0011
    STRESS:  cpu time      0.0517: real time      0.0043
    FORCOR:  cpu time      0.0851: real time      0.0073
    FORHAR:  cpu time      0.0214: real time      0.0019
    MIXING:  cpu time      0.0041: real time      0.0004
    OFIELD:  cpu time      0.0000: real time      0.0000

  FORCE on cell =-STRESS in cart. coord.  units (eV):
  Direction    XX          YY          ZZ          XY          YZ          ZX
  --------------------------------------------------------------------------------------
  Alpha Z     3.29318     3.29318     3.29318
  Ewald     -75.64833   -75.64833   -75.64833     0.00000    -0.00000     0.00000
  Hartree     5.75191     5.75191     5.75191     0.00000     0.00000     0.00000
  E(xc)     -25.51246   -25.51246   -25.51246    -0.00000    -0.00000    -0.00000
  Local     -30.12982   -30.12982   -30.12982     0.00009     0.00009     0.00009
  n-local    76.50002    76.50003    71.77965     1.99691    -1.99684     1.99692
  augment   -10.61448   -10.61448   -10.61448    -0.00008    -0.00008    -0.00008
  Kinetic    61.24570    61.24572    55.57055     3.61020    -3.61020     3.61021
  Fock        0.00000     0.00000     0.00000     0.00000     0.00000     0.00000
  -------------------------------------------------------------------------------------
  Total       1.42056     1.42056     1.42056     0.00000     0.00000    -0.00000
  in kB      55.66360    55.66360    55.66360     0.00000     0.00000    -0.00000
  external pressure =       55.66 kB  Pullay stress =        0.00 kB


 VOLUME and BASIS-vectors are now :
 -----------------------------------------------------------------------------
  energy-cutoff  :      100.00
  volume of cell :       40.89
      direct lattice vectors                 reciprocal lattice vectors
     0.000000000  2.734363998  2.734363998    -0.182857879  0.182857879  0.182857879
     2.734363998  0.000000000  2.734363998     0.182857879 -0.182857879  0.182857879
     2.734363998  2.734363998  0.000000000     0.182857879  0.182857879 -0.182857879

  length of vectors
     3.866974650  3.866974650  3.866974650     0.316719136  0.316719136  0.316719136


 FORCES acting on ions
    electron-ion (+dipol)            ewald-force                    non-local-force                 convergence-correction
 -----------------------------------------------------------------------------------------------
   0.140E-04 0.140E-04 0.140E-04   0.494E-15 -.506E-15 -.141E-13   0.736E-16 0.736E-16 0.489E-16   -.264E-06 -.264E-06 -.264E-06
   -.140E-04 -.140E-04 -.140E-04   -.327E-15 -.219E-15 0.141E-13   -.899E-17 -.784E-16 -.257E-16   0.264E-06 0.264E-06 0.264E-06
 -----------------------------------------------------------------------------------------------
   -.483E-14 -.159E-14 0.127E-13   0.167E-15 -.725E-15 0.269E-16   0.646E-16 -.475E-17 0.233E-16   0.431E-15 -.106E-14 -.134E-14


 POSITION                                       TOTAL-FORCE (eV/Angst)
 -----------------------------------------------------------------------------------
      0.00000      0.00000      0.00000        -0.000000     -0.000000     -0.000000
      1.36718      1.36718      1.36718         0.000000      0.000000      0.000000
 -----------------------------------------------------------------------------------
    total drift:                               -0.000000     -0.000000      0.000000


--------------------------------------------------------------------------------------------------------



  FREE ENERGIE OF THE ION-ELECTRON SYSTEM (eV)
  ---------------------------------------------------
  free  energy   TOTEN  =        -8.05070467 eV

  energy  without entropy=       -8.05070467  energy(sigma->0) =       -8.05070467



--------------------------------------------------------------------------------------------------------


    POTLOK:  cpu time      0.1095: real time      0.0097


--------------------------------------------------------------------------------------------------------


 writing wavefunctions
     LOOP+:  cpu time      2.1520: real time      0.1904
    4ORBIT:  cpu time      0.0018: real time      0.0002



 total charge

# of ion       s       p       d       tot
------------------------------------------
    1        0.644   1.109   0.000   1.752
    2        0.644   1.109   0.000   1.752
--------------------------------------------------
tot          1.287   2.217   0.000   3.505


 total amount of memory used by VASP MPI-rank0    33398. kBytes
=======================================================================

   base      :      30000. kBytes
   nonl-proj :         20. kBytes
   fftplans  :       1488. kBytes
   grid      :       1843. kBytes
   one-center:          6. kBytes
   wavefun   :         41. kBytes

  
  
 General timing and accounting informations for this job:
 ========================================================
  
                  Total CPU time used (sec):        2.982
                            User time (sec):        1.155
                          System time (sec):        1.827
                         Elapsed time (sec):        3.171
  
                   Maximum memory used (kb):       40516.
                   Average memory used (kb):          N/A
  
                          Minor page faults:         4832
                          Major page faults:          201
                 Voluntary context switches:         1627
