PROCAR lm decomposed
# of k-points:  140         # of bands:    8         # of ions:    2

 k-point     1 :    0.50000000 0.00000000 0.50000000     weight = 0.00714286

band     1 # energy   -1.86626035 # occ.  2.00000000

ion      s     py     pz     px    dxy    dyz    dz2    dxz  x2-y2    tot
    1  0.186  0.047  0.000  0.000  0.000  0.000  0.000  0.000  0.000  0.233
    2  0.186  0.047  0.000  0.000  0.000  0.000  0.000  0.000  0.000  0.233
tot    0.373  0.093  0.000  0.000  0.000  0.000  0.000  0.000  0.000  0.466

band     2 # energy   -1.86625870 # occ.  2.00000000

ion      s     py     pz     px    dxy    dyz    dz2    dxz  x2-y2    tot
    1  0.186  0.047  0.000  0.000  0.000  0.000  0.000  0.000  0.000  0.233
    2  0.186  0.047  0.000  0.000  0.000  0.000  0.000  0.000  0.000  0.233
tot    0.373  0.093  0.000  0.000  0.000  0.000  0.000  0.000  0.000  0.466

band     3 # energy    3.08961132 # occ.  2.00000000

ion      s     py     pz     px    dxy    dyz    dz2    dxz  x2-y2    tot
    1  0.000  0.000  0.102  0.102  0.000  0.000  0.000  0.000  0.000  0.204
    2  0.000  0.000  0.102  0.102  0.000  0.000  0.000  0.000  0.000  0.204
tot    0.000  0.000  0.204  0.204  0.000  0.000  0.000  0.000  0.000  0.407

band     4 # energy    3.08962693 # occ.  2.00000000

ion      s     py     pz     px    dxy    dyz    dz2    dxz  x2-y2    tot
    1  0.000  0.000  0.102  0.102  0.000  0.000  0.000  0.000  0.000  0.204
    2  0.000  0.000  0.102  0.102  0.000  0.000  0.000  0.000  0.000  0.204
tot    0.000  0.000  0.204  0.204  0.000  0.000  0.000  0.000  0.000  0.407

band     5 # energy    6.71150192 # occ.  0.00000000

ion      s     py     pz     px    dxy    dyz    dz2    dxz  x2-y2    tot
    1  0.051  0.038  0.000  0.000  0.000  0.000  0.000  0.000  0.000  0.090
    2  0.051  0.038  0.000  0.000  0.000  0.000  0.000  0.000  0.000  0.090
tot    0.103  0.077  0.000  0.000  0.000  0.000  0.000  0.000  0.000  0.179

band     6 # energy    6.71150665 # occ.  0.00000000

ion      s     py     pz     px    dxy    dyz    dz2    dxz  x2-y2    tot
    1  0.051  0.038  0.000  0.000  0.000  0.000  0.000  0.000  0.000  0.090
    2  0.051  0.038  0.000  0.000  0.000  0.000  0.000  0.000  0.000  0.090
tot    0.103  0.077  0.000  0.000  0.000  0.000  0.000  0.000  0.000  0.179

band     7 # energy   16.02357674 # occ.  0.00000000

ion      s     py     pz     px    dxy    dyz    dz2    dxz  x2-y2    tot
    1  0.000  0.000  0.128  0.128  0.000  0.000  0.000  0.000  0.000  0.255
    2  0.000  0.000  0.128  0.128  0.000  0.000  0.000  0.000  0.000  0.255
tot    0.000  0.000  0.255  0.255  0.000  0.000  0.000  0.000  0.000  0.510

band     8 # energy   16.02360174 # occ.  0.00000000

ion      s     py     pz     px    dxy    dyz    dz2    dxz  x2-y2    tot
    1  0.000  0.000  0.128  0.128  0.000  0.000  0.000  0.000  0.000  0.255
    2  0.000  0.000  0.128  0.128  0.000  0.000  0.000  0.000  0.000  0.255
tot    0.000  0.000  0.255  0.255  0.000  0.000  0.000  0.000  0.000  0.510


 k-point     2 :    0.50000000 0.01315789 0.51315789     weight = 0.00714286

band     1 # energy   -1.86525227 # occ.  2.00000000

ion      s     py     pz     px    dxy    dyz    dz2    dxz  x2-y2    tot
    1  0.186  0.047  0.000  0.000  0.000  0.000  0.000  0.000  0.000  0.233
    2  0.186  0.047  0.000  0.000  0.000  0.000  0.000  0.000  0.000  0.233
tot    0.373  0.093  0.000  0.000  0.000  0.000  0.000  0.000  0.000  0.466

band     2 # energy   -1.86525062 # occ.  2.00000000

ion      s     py     pz     px    dxy    dyz    dz2    dxz  x2-y2    tot
    1  0.186  0.047  0.000  0.000  0.000  0.000  0.000  0.000  0.000  0.233
    2  0.186  0.047  0.000  0.000  0.000  0.000  0.000  0.000  0.000  0.233
tot    0.373  0.093  0.000  0.000  0.000  0.000  0.000  0.000  0.000  0.466

band     3 # energy    3.08052004 # occ.  2.00000000

ion      s     py     pz     px    dxy    dyz    dz2    dxz  x2-y2    tot
    1  0.000  0.000  0.101  0.101  0.000  0.000  0.000  0.000  0.000  0.203
    2  0.000  0.000  0.101  0.101  0.000  0.000  0.000  0.000  0.000  0.203
tot    0.000  0.001  0.203  0.203  0.000  0.000  0.000  0.000  0.000  0.407

band     4 # energy    3.08053559 # occ.  2.00000000

ion      s     py     pz     px    dxy    dyz    dz2    dxz  x2-y2    tot
    1  0.000  0.000  0.101  0.101  0.000  0.000  0.000  0.000  0.000  0.203
    2  0.000  0.000  0.101  0.101  0.000  0.000  0.000  0.000  0.000  0.203
tot    0.000  0.001  0.203  0.203  0.000  0.000  0.000  0.000  0.000  0.407

band     5 # energy    6.72833231 # occ.  0.00000000

ion      s     py     pz     px    dxy    dyz    dz2    dxz  x2-y2    tot
    1  0.051  0.038  0.000  0.000  0.000  0.000  0.000  0.000  0.000  0.090
    2  0.051  0.038  0.000  0.000  0.000  0.000  0.000  0.000  0.000  0.090
tot    0.102  0.076  0.001  0.001  0.000  0.000  0.000  0.000  0.000  0.180

band     6 # energy    6.72833699 # occ.  0.00000000

ion      s     py     pz     px    dxy    dyz    dz2    dxz  x2-y2    tot
    1  0.051  0.038  0.000  0.000  0.000  0.000  0.000  0.000  0.000  0.090
    2  0.051  0.038  0.000  0.000  0.000  0.000  0.000  0.000  0.000  0.090
tot    0.102  0.076  0.001  0.001  0.000  0.000  0.000  0.000  0.000  0.180

band     7 # energy   15.99926614 # occ.  0.00000000

ion      s     py     pz     px    dxy    dyz    dz2    dxz  x2-y2    tot
    1  0.000  0.001  0.126  0.127  0.000  0.000  0.000  0.000  0.000  0.254
    2  0.000  0.001  0.126  0.127  0.000  0.000  0.000  0.000  0.000  0.254
tot    0.001  0.001  0.252  0.254  0.000  0.000  0.000  0.000  0.000  0.508

band     8 # energy   15.99935652 # occ.  0.00000000

ion      s     py     pz     px    dxy    dyz    dz2    dxz  x2-y2    tot
    1  0.000  0.001  0.125  0.128  0.000  0.000  0.000  0.000  0.000  0.254
    2  0.000  0.001  0.125  0.128  0.000  0.000  0.000  0.000  0.000  0.254
tot    0.001  0.001  0.249  0.256  0.000  0.000  0.000  0.000  0.000  0.507


 k-point     3 :    0.50000000 0.02631579 0.52631579     weight = 0.00714286

band     1 # energy   -1.86224923 # occ.  2.00000000

ion      s     py     pz     px    dxy    dyz    dz2    dxz  x2-y2    tot
    1  0.187  0.046  0.000  0.000  0.000  0.000  0.000  0.000  0.000  0.233
    2  0.187  0.046  0.000  0.000  0.000  0.000  0.000  0.000  0.000  0.233
tot    0.373  0.093  0.000  0.000  0.000  0.000  0.000  0.000  0.000  0.466

band     2 # energy   -1.86224758 # occ.  2.00000000

ion      s     py     pz     px    dxy    dyz    dz2    dxz  x2-y2    tot
    1  0.187  0.046  0.000  0.000  0.000  0.000  0.000  0.000  0.000  0.233
    2  0.187  0.046  0.000  0.000  0.000  0.000  0.000  0.000  0.000  0.233
tot    0.373  0.093  0.000  0.000  0.000  0.000  0.000  0.000  0.000  0.466

band     3 # energy    3.05384633 # occ.  2.00000000

ion      s     py     pz     px    dxy    dyz    dz2    dxz  x2-y2    tot
    1  0.000  0.001  0.100  0.100  0.000  0.000  0.000  0.000  0.000  0.202
    2  0.000  0.001  0.100  0.100  0.000  0.000  0.000  0.000  0.000  0.202
tot    0.001  0.002  0.200  0.200  0.000  0.000  0.000  0.000  0.000  0.404

band     4 # energy    3.05386169 # occ.  2.00000000

ion      s     py     pz     px    dxy    dyz    dz2    dxz  x2-y2    tot
    1  0.000  0.001  0.100  0.100  0.000  0.000  0.000  0.000  0.000  0.202
    2  0.000  0.001  0.100  0.100  0.000  0.000  0.000  0.000  0.000  0.202
tot    0.001  0.002  0.200  0.200  0.000  0.000  0.000  0.000  0.000  0.404

band     5 # energy    6.77823732 # occ.  0.00000000

ion      s     py     pz     px    dxy    dyz    dz2    dxz  x2-y2    tot
    1  0.051  0.038  0.001  0.002  0.000  0.000  0.000  0.000  0.000  0.091
    2  0.051  0.038  0.001  0.002  0.000  0.000  0.000  0.000  0.000  0.091
tot    0.101  0.075  0.003  0.004  0.000  0.000  0.000  0.000  0.000  0.183

band     6 # energy    6.77824186 # occ.  0.00000000

ion      s     py     pz     px    dxy    dyz    dz2    dxz  x2-y2    tot
    1  0.051  0.038  0.001  0.002  0.000  0.000  0.000  0.000  0.000  0.091
    2  0.051  0.038  0.001  0.002  0.000  0.000  0.000  0.000  0.000  0.091
tot    0.101  0.075  0.003  0.004  0.000  0.000  0.000  0.000  0.000  0.183

band     7 # energy   15.92329109 # occ.  0.00000000

ion      s     py     pz     px    dxy    dyz    dz2    dxz  x2-y2    tot
    1  0.002  0.002  0.118  0.126  0.000  0.000  0.000  0.000  0.000  0.249
    2  0.002  0.002  0.118  0.126  0.000  0.000  0.000  0.000  0.000  0.249
tot    0.004  0.005  0.237  0.252  0.000  0.000  0.000  0.000  0.000  0.498

band     8 # energy   15.92337906 # occ.  0.00000000

ion      s     py     pz     px    dxy    dyz    dz2    dxz  x2-y2    tot
    1  0.002  0.002  0.119  0.126  0.000  0.000  0.000  0.000  0.000  0.249
    2  0.002  0.002  0.119  0.126  0.000  0.000  0.000  0.000  0.000  0.249
tot    0.004  0.005  0.238  0.252  0.000  0.000  0.000  0.000  0.000  0.498


 k-point     4 :    0.50000000 0.03947368 0.53947368     weight = 0.00714286

band     1 # energy   -1.85731452 # occ.  2.00000000

ion      s     py     pz     px    dxy    dyz    dz2    dxz  x2-y2    tot
    1  0.187  0.046  0.000  0.000  0.000  0.000  0.000  0.000  0.000  0.233
    2  0.187  0.046  0.000  0.000  0.000  0.000  0.000  0.000  0.000  0.233
tot    0.374  0.092  0.001  0.000  0.000  0.000  0.000  0.000  0.000  0.467

band     2 # energy   -1.85731286 # occ.  2.00000000

ion      s     py     pz     px    dxy    dyz    dz2    dxz  x2-y2    tot
    1  0.187  0.046  0.000  0.000  0.000  0.000  0.000  0.000  0.000  0.233
    2  0.187  0.046  0.000  0.000  0.000  0.000  0.000  0.000  0.000  0.233
tot    0.374  0.092  0.001  0.000  0.000  0.000  0.000  0.000  0.000  0.467

band     3 # energy    3.01127126 # occ.  2.00000000

ion      s     py     pz     px    dxy    dyz    dz2    dxz  x2-y2    tot
    1  0.001  0.002  0.098  0.098  0.000  0.000  0.000  0.000  0.000  0.200
    2  0.001  0.002  0.098  0.098  0.000  0.000  0.000  0.000  0.000  0.200
tot    0.002  0.005  0.197  0.197  0.000  0.000  0.000  0.000  0.000  0.400

band     4 # energy    3.01128633 # occ.  2.00000000

ion      s     py     pz     px    dxy    dyz    dz2    dxz  x2-y2    tot
    1  0.001  0.002  0.098  0.098  0.000  0.000  0.000  0.000  0.000  0.200
    2  0.001  0.002  0.098  0.098  0.000  0.000  0.000  0.000  0.000  0.200
tot    0.002  0.005  0.197  0.197  0.000  0.000  0.000  0.000  0.000  0.400

band     5 # energy    6.85957532 # occ.  0.00000000

ion      s     py     pz     px    dxy    dyz    dz2    dxz  x2-y2    tot
    1  0.050  0.037  0.003  0.004  0.000  0.000  0.000  0.000  0.000  0.093
    2  0.050  0.037  0.003  0.004  0.000  0.000  0.000  0.000  0.000  0.093
tot    0.099  0.073  0.006  0.008  0.000  0.000  0.000  0.000  0.000  0.187

band     6 # energy    6.85957966 # occ.  0.00000000

ion      s     py     pz     px    dxy    dyz    dz2    dxz  x2-y2    tot
    1  0.050  0.037  0.003  0.004  0.000  0.000  0.000  0.000  0.000  0.093
    2  0.050  0.037  0.003  0.004  0.000  0.000  0.000  0.000  0.000  0.093
tot    0.099  0.073  0.006  0.008  0.000  0.000  0.000  0.000  0.000  0.187

band     7 # energy   15.79161479 # occ.  0.00000000

ion      s     py     pz     px    dxy    dyz    dz2    dxz  x2-y2    tot
    1  0.004  0.006  0.107  0.123  0.000  0.000  0.000  0.000  0.000  0.240
    2  0.004  0.006  0.107  0.123  0.000  0.000  0.000  0.000  0.000  0.240
tot    0.008  0.012  0.215  0.245  0.000  0.000  0.000  0.000  0.000  0.480

band     8 # energy   15.79165048 # occ.  0.00000000

ion      s     py     pz     px    dxy    dyz    dz2    dxz  x2-y2    tot
    1  0.004  0.006  0.107  0.123  0.000  0.000  0.000  0.000  0.000  0.240
    2  0.004  0.006  0.107  0.123  0.000  0.000  0.000  0.000  0.000  0.240
tot    0.008  0.012  0.215  0.245  0.000  0.000  0.000  0.000  0.000  0.480


 k-point     5 :    0.50000000 0.05263158 0.55263158     weight = 0.00714286

band     1 # energy   -1.85054869 # occ.  2.00000000

ion      s     py     pz     px    dxy    dyz    dz2    dxz  x2-y2    tot
    1  0.187  0.046  0.001  0.000  0.000  0.000  0.000  0.000  0.000  0.234
    2  0.187  0.046  0.001  0.000  0.000  0.000  0.000  0.000  0.000  0.234
tot    0.375  0.091  0.002  0.000  0.000  0.000  0.000  0.000  0.000  0.467

band     2 # energy   -1.85054702 # occ.  2.00000000

ion      s     py     pz     px    dxy    dyz    dz2    dxz  x2-y2    tot
    1  0.187  0.046  0.001  0.000  0.000  0.000  0.000  0.000  0.000  0.234
    2  0.187  0.046  0.001  0.000  0.000  0.000  0.000  0.000  0.000  0.234
tot    0.375  0.091  0.002  0.000  0.000  0.000  0.000  0.000  0.000  0.467

band     3 # energy    2.95526903 # occ.  2.00000000

ion      s     py     pz     px    dxy    dyz    dz2    dxz  x2-y2    tot
    1  0.001  0.004  0.096  0.096  0.000  0.000  0.000  0.000  0.000  0.197
    2  0.001  0.004  0.096  0.096  0.000  0.000  0.000  0.000  0.000  0.197
tot    0.003  0.008  0.192  0.192  0.000  0.000  0.000  0.000  0.000  0.394

band     4 # energy    2.95528375 # occ.  2.00000000

ion      s     py     pz     px    dxy    dyz    dz2    dxz  x2-y2    tot
    1  0.001  0.004  0.096  0.096  0.000  0.000  0.000  0.000  0.000  0.197
    2  0.001  0.004  0.096  0.096  0.000  0.000  0.000  0.000  0.000  0.197
tot    0.003  0.008  0.192  0.192  0.000  0.000  0.000  0.000  0.000  0.394

band     5 # energy    6.96994957 # occ.  0.00000000

ion      s     py     pz     px    dxy    dyz    dz2    dxz  x2-y2    tot
    1  0.048  0.036  0.005  0.007  0.000  0.000  0.000  0.000  0.000  0.096
    2  0.048  0.036  0.005  0.007  0.000  0.000  0.000  0.000  0.000  0.096
tot    0.097  0.071  0.010  0.014  0.000  0.000  0.000  0.000  0.000  0.192

band     6 # energy    6.96995367 # occ.  0.00000000

ion      s     py     pz     px    dxy    dyz    dz2    dxz  x2-y2    tot
    1  0.048  0.036  0.005  0.007  0.000  0.000  0.000  0.000  0.000  0.096
    2  0.048  0.036  0.005  0.007  0.000  0.000  0.000  0.000  0.000  0.096
tot    0.097  0.071  0.010  0.014  0.000  0.000  0.000  0.000  0.000  0.192

band     7 # energy   15.60273618 # occ.  0.00000000

ion      s     py     pz     px    dxy    dyz    dz2    dxz  x2-y2    tot
    1  0.007  0.010  0.093  0.116  0.000  0.000  0.000  0.000  0.000  0.227
    2  0.007  0.010  0.093  0.116  0.000  0.000  0.000  0.000  0.000  0.227
tot    0.014  0.020  0.187  0.232  0.000  0.000  0.000  0.000  0.000  0.453

band     8 # energy   15.60276564 # occ.  0.00000000

ion      s     py     pz     px    dxy    dyz    dz2    dxz  x2-y2    tot
    1  0.007  0.010  0.093  0.116  0.000  0.000  0.000  0.000  0.000  0.227
    2  0.007  0.010  0.093  0.116  0.000  0.000  0.000  0.000  0.000  0.227
tot    0.014  0.020  0.187  0.232  0.000  0.000  0.000  0.000  0.000  0.453


 k-point     6 :    0.50000000 0.06578947 0.56578947     weight = 0.00714286

band     1 # energy   -1.84209477 # occ.  2.00000000

ion      s     py     pz     px    dxy    dyz    dz2    dxz  x2-y2    tot
    1  0.188  0.045  0.001  0.000  0.000  0.000  0.000  0.000  0.000  0.234
    2  0.188  0.045  0.001  0.000  0.000  0.000  0.000  0.000  0.000  0.234
tot    0.376  0.090  0.003  0.000  0.000  0.000  0.000  0.000  0.000  0.468

band     2 # energy   -1.84209309 # occ.  2.00000000

ion      s     py     pz     px    dxy    dyz    dz2    dxz  x2-y2    tot
    1  0.188  0.045  0.001  0.000  0.000  0.000  0.000  0.000  0.000  0.234
    2  0.188  0.045  0.001  0.000  0.000  0.000  0.000  0.000  0.000  0.234
tot    0.376  0.090  0.003  0.000  0.000  0.000  0.000  0.000  0.000  0.468

band     3 # energy    2.88872782 # occ.  2.00000000

ion      s     py     pz     px    dxy    dyz    dz2    dxz  x2-y2    tot
    1  0.002  0.006  0.093  0.093  0.000  0.000  0.000  0.000  0.000  0.194
    2  0.002  0.006  0.093  0.093  0.000  0.000  0.000  0.000  0.000  0.194
tot    0.004  0.012  0.186  0.186  0.000  0.000  0.000  0.000  0.000  0.388

band     4 # energy    2.88874215 # occ.  2.00000000

ion      s     py     pz     px    dxy    dyz    dz2    dxz  x2-y2    tot
    1  0.002  0.006  0.093  0.093  0.000  0.000  0.000  0.000  0.000  0.194
    2  0.002  0.006  0.093  0.093  0.000  0.000  0.000  0.000  0.000  0.194
tot    0.004  0.012  0.186  0.186  0.000  0.000  0.000  0.000  0.000  0.388

band     5 # energy    7.10657042 # occ.  0.00000000

ion      s     py     pz     px    dxy    dyz    dz2    dxz  x2-y2    tot
    1  0.047  0.034  0.007  0.010  0.000  0.000  0.000  0.000  0.000  0.099
    2  0.047  0.034  0.007  0.010  0.000  0.000  0.000  0.000  0.000  0.099
tot    0.094  0.068  0.014  0.020  0.000  0.000  0.000  0.000  0.000  0.197

band     6 # energy    7.10657429 # occ.  0.00000000

ion      s     py     pz     px    dxy    dyz    dz2    dxz  x2-y2    tot
    1  0.047  0.034  0.007  0.010  0.000  0.000  0.000  0.000  0.000  0.099
    2  0.047  0.034  0.007  0.010  0.000  0.000  0.000  0.000  0.000  0.099
tot    0.094  0.068  0.014  0.020  0.000  0.000  0.000  0.000  0.000  0.197

band     7 # energy   15.36275849 # occ.  0.00000000

ion      s     py     pz     px    dxy    dyz    dz2    dxz  x2-y2    tot
    1  0.010  0.015  0.079  0.107  0.000  0.000  0.000  0.000  0.000  0.212
    2  0.010  0.015  0.079  0.107  0.000  0.000  0.000  0.000  0.000  0.212
tot    0.020  0.030  0.159  0.215  0.000  0.000  0.000  0.000  0.000  0.424

band     8 # energy   15.36278150 # occ.  0.00000000

ion      s     py     pz     px    dxy    dyz    dz2    dxz  x2-y2    tot
    1  0.010  0.015  0.079  0.107  0.000  0.000  0.000  0.000  0.000  0.212
    2  0.010  0.015  0.079  0.108  0.000  0.000  0.000  0.000  0.000  0.212
tot    0.020  0.030  0.159  0.215  0.000  0.000  0.000  0.000  0.000  0.424


 k-point     7 :    0.50000000 0.07894737 0.57894737     weight = 0.00714286

band     1 # energy   -1.83495705 # occ.  2.00000000

ion      s     py     pz     px    dxy    dyz    dz2    dxz  x2-y2    tot
    1  0.189  0.044  0.002  0.000  0.000  0.000  0.000  0.000  0.000  0.235
    2  0.189  0.044  0.002  0.000  0.000  0.000  0.000  0.000  0.000  0.235
tot    0.378  0.088  0.004  0.000  0.000  0.000  0.000  0.000  0.000  0.470

band     2 # energy   -1.83495532 # occ.  2.00000000

ion      s     py     pz     px    dxy    dyz    dz2    dxz  x2-y2    tot
    1  0.189  0.044  0.002  0.000  0.000  0.000  0.000  0.000  0.000  0.235
    2  0.189  0.044  0.002  0.000  0.000  0.000  0.000  0.000  0.000  0.235
tot    0.378  0.088  0.004  0.000  0.000  0.000  0.000  0.000  0.000  0.470

band     3 # energy    2.80403582 # occ.  2.00000000

ion      s     py     pz     px    dxy    dyz    dz2    dxz  x2-y2    tot
    1  0.002  0.008  0.090  0.091  0.000  0.000  0.000  0.000  0.000  0.191
    2  0.002  0.008  0.090  0.091  0.000  0.000  0.000  0.000  0.000  0.191
tot    0.004  0.017  0.180  0.181  0.000  0.000  0.000  0.000  0.000  0.382

band     4 # energy    2.80404977 # occ.  2.00000000

ion      s     py     pz     px    dxy    dyz    dz2    dxz  x2-y2    tot
    1  0.002  0.008  0.090  0.091  0.000  0.000  0.000  0.000  0.000  0.191
    2  0.002  0.008  0.090  0.091  0.000  0.000  0.000  0.000  0.000  0.191
tot    0.004  0.017  0.180  0.181  0.000  0.000  0.000  0.000  0.000  0.382

band     5 # energy    7.26165890 # occ.  0.00000000

ion      s     py     pz     px    dxy    dyz    dz2    dxz  x2-y2    tot
    1  0.045  0.033  0.009  0.014  0.000  0.000  0.000  0.000  0.000  0.101
    2  0.045  0.033  0.009  0.014  0.000  0.000  0.000  0.000  0.000  0.101
tot    0.091  0.066  0.019  0.027  0.000  0.000  0.000  0.000  0.000  0.202

band     6 # energy    7.26166258 # occ.  0.00000000

ion      s     py     pz     px    dxy    dyz    dz2    dxz  x2-y2    tot
    1  0.045  0.033  0.009  0.014  0.000  0.000  0.000  0.000  0.000  0.101
    2  0.045  0.033  0.009  0.014  0.000  0.000  0.000  0.000  0.000  0.101
tot    0.091  0.066  0.019  0.027  0.000  0.000  0.000  0.000  0.000  0.202

band     7 # energy   15.03982651 # occ.  0.00000000

ion      s     py     pz     px    dxy    dyz    dz2    dxz  x2-y2    tot
    1  0.012  0.019  0.067  0.098  0.000  0.000  0.000  0.000  0.000  0.196
    2  0.012  0.019  0.067  0.098  0.000  0.000  0.000  0.000  0.000  0.196
tot    0.025  0.038  0.133  0.197  0.000  0.000  0.000  0.000  0.000  0.393

band     8 # energy   15.03985896 # occ.  0.00000000

ion      s     py     pz     px    dxy    dyz    dz2    dxz  x2-y2    tot
    1  0.012  0.019  0.067  0.098  0.000  0.000  0.000  0.000  0.000  0.197
    2  0.012  0.019  0.067  0.098  0.000  0.000  0.000  0.000  0.000  0.196
tot    0.025  0.038  0.133  0.197  0.000  0.000  0.000  0.000  0.000  0.393


 k-point     8 :    0.50000000 0.09210526 0.59210526     weight = 0.00714286

band     1 # energy   -1.82378099 # occ.  2.00000000

ion      s     py     pz     px    dxy    dyz    dz2    dxz  x2-y2    tot
    1  0.190  0.043  0.003  0.000  0.000  0.000  0.000  0.000  0.000  0.236
    2  0.190  0.043  0.003  0.000  0.000  0.000  0.000  0.000  0.000  0.236
tot    0.380  0.086  0.005  0.000  0.000  0.000  0.000  0.000  0.000  0.471

band     2 # energy   -1.82377924 # occ.  2.00000000

ion      s     py     pz     px    dxy    dyz    dz2    dxz  x2-y2    tot
    1  0.190  0.043  0.003  0.000  0.000  0.000  0.000  0.000  0.000  0.236
    2  0.190  0.043  0.003  0.000  0.000  0.000  0.000  0.000  0.000  0.236
tot    0.380  0.086  0.005  0.000  0.000  0.000  0.000  0.000  0.000  0.471

band     3 # energy    2.72496475 # occ.  2.00000000

ion      s     py     pz     px    dxy    dyz    dz2    dxz  x2-y2    tot
    1  0.002  0.011  0.087  0.088  0.000  0.000  0.000  0.000  0.000  0.188
    2  0.002  0.011  0.087  0.088  0.000  0.000  0.000  0.000  0.000  0.188
tot    0.005  0.021  0.173  0.176  0.000  0.000  0.000  0.000  0.000  0.376

band     4 # energy    2.72497832 # occ.  2.00000000

ion      s     py     pz     px    dxy    dyz    dz2    dxz  x2-y2    tot
    1  0.002  0.011  0.087  0.088  0.000  0.000  0.000  0.000  0.000  0.188
    2  0.002  0.011  0.087  0.088  0.000  0.000  0.000  0.000  0.000  0.188
tot    0.005  0.021  0.173  0.176  0.000  0.000  0.000  0.000  0.000  0.376

band     5 # energy    7.44248407 # occ.  0.00000000

ion      s     py     pz     px    dxy    dyz    dz2    dxz  x2-y2    tot
    1  0.044  0.032  0.012  0.017  0.000  0.000  0.000  0.000  0.000  0.104
    2  0.044  0.032  0.012  0.017  0.000  0.000  0.000  0.000  0.000  0.104
tot    0.087  0.063  0.023  0.034  0.000  0.000  0.000  0.000  0.000  0.208

band     6 # energy    7.44248761 # occ.  0.00000000

ion      s     py     pz     px    dxy    dyz    dz2    dxz  x2-y2    tot
    1  0.044  0.032  0.012  0.017  0.000  0.000  0.000  0.000  0.000  0.104
    2  0.044  0.032  0.012  0.017  0.000  0.000  0.000  0.000  0.000  0.104
tot    0.087  0.063  0.023  0.034  0.000  0.000  0.000  0.000  0.000  0.208

band     7 # energy   14.73189310 # occ.  0.00000000

ion      s     py     pz     px    dxy    dyz    dz2    dxz  x2-y2    tot
    1  0.015  0.023  0.058  0.090  0.000  0.000  0.000  0.000  0.000  0.185
    2  0.015  0.023  0.058  0.090  0.000  0.000  0.000  0.000  0.000  0.185
tot    0.030  0.045  0.115  0.180  0.000  0.000  0.000  0.000  0.000  0.371

band     8 # energy   14.73193364 # occ.  0.00000000

ion      s     py     pz     px    dxy    dyz    dz2    dxz  x2-y2    tot
    1  0.015  0.023  0.058  0.090  0.000  0.000  0.000  0.000  0.000  0.185
    2  0.015  0.023  0.058  0.090  0.000  0.000  0.000  0.000  0.000  0.185
tot    0.030  0.045  0.115  0.181  0.000  0.000  0.000  0.000  0.000  0.370


 k-point     9 :    0.50000000 0.10526316 0.60526316     weight = 0.00714286

band     1 # energy   -1.81158448 # occ.  2.00000000

ion      s     py     pz     px    dxy    dyz    dz2    dxz  x2-y2    tot
    1  0.191  0.042  0.003  0.000  0.000  0.000  0.000  0.000  0.000  0.236
    2  0.191  0.042  0.003  0.000  0.000  0.000  0.000  0.000  0.000  0.236
tot    0.381  0.084  0.007  0.000  0.000  0.000  0.000  0.000  0.000  0.472

band     2 # energy   -1.81158272 # occ.  2.00000000

ion      s     py     pz     px    dxy    dyz    dz2    dxz  x2-y2    tot
    1  0.191  0.042  0.003  0.000  0.000  0.000  0.000  0.000  0.000  0.236
    2  0.191  0.042  0.003  0.000  0.000  0.000  0.000  0.000  0.000  0.236
tot    0.381  0.084  0.007  0.000  0.000  0.000  0.000  0.000  0.000  0.472

band     3 # energy    2.64383369 # occ.  2.00000000

ion      s     py     pz     px    dxy    dyz    dz2    dxz  x2-y2    tot
    1  0.003  0.013  0.084  0.085  0.000  0.000  0.000  0.000  0.000  0.185
    2  0.003  0.013  0.084  0.085  0.000  0.000  0.000  0.000  0.000  0.185
tot    0.005  0.026  0.167  0.171  0.000  0.000  0.000  0.000  0.000  0.370

band     4 # energy    2.64384690 # occ.  2.00000000

ion      s     py     pz     px    dxy    dyz    dz2    dxz  x2-y2    tot
    1  0.003  0.013  0.084  0.085  0.000  0.000  0.000  0.000  0.000  0.185
    2  0.003  0.013  0.084  0.085  0.000  0.000  0.000  0.000  0.000  0.185
tot    0.005  0.026  0.167  0.171  0.000  0.000  0.000  0.000  0.000  0.370

band     5 # energy    7.64145715 # occ.  0.00000000

ion      s     py     pz     px    dxy    dyz    dz2    dxz  x2-y2    tot
    1  0.042  0.030  0.014  0.021  0.000  0.000  0.000  0.000  0.000  0.107
    2  0.042  0.030  0.014  0.021  0.000  0.000  0.000  0.000  0.000  0.107
tot    0.084  0.061  0.027  0.041  0.000  0.000  0.000  0.000  0.000  0.213

band     6 # energy    7.64146063 # occ.  0.00000000

ion      s     py     pz     px    dxy    dyz    dz2    dxz  x2-y2    tot
    1  0.042  0.030  0.014  0.021  0.000  0.000  0.000  0.000  0.000  0.107
    2  0.042  0.030  0.014  0.021  0.000  0.000  0.000  0.000  0.000  0.107
tot    0.084  0.061  0.027  0.041  0.000  0.000  0.000  0.000  0.000  0.213

band     7 # energy   14.40706489 # occ.  0.00000000

ion      s     py     pz     px    dxy    dyz    dz2    dxz  x2-y2    tot
    1  0.017  0.026  0.051  0.083  0.000  0.000  0.000  0.000  0.000  0.177
    2  0.017  0.026  0.051  0.083  0.000  0.000  0.000  0.000  0.000  0.177
tot    0.034  0.051  0.102  0.166  0.000  0.000  0.000  0.000  0.000  0.353

band     8 # energy   14.40722114 # occ.  0.00000000

ion      s     py     pz     px    dxy    dyz    dz2    dxz  x2-y2    tot
    1  0.017  0.025  0.051  0.083  0.000  0.000  0.000  0.000  0.000  0.177
    2  0.017  0.025  0.051  0.083  0.000  0.000  0.000  0.000  0.000  0.177
tot    0.034  0.051  0.102  0.166  0.000  0.000  0.000  0.000  0.000  0.353


 k-point    10 :    0.50000000 0.11842105 0.61842105     weight = 0.00714286

band     1 # energy   -1.79866288 # occ.  2.00000000

ion      s     py     pz     px    dxy    dyz    dz2    dxz  x2-y2    tot
    1  0.191  0.041  0.004  0.000  0.000  0.000  0.000  0.000  0.000  0.237
    2  0.191  0.041  0.004  0.000  0.000  0.000  0.000  0.000  0.000  0.237
tot    0.383  0.082  0.009  0.000  0.000  0.000  0.000  0.000  0.000  0.474

band     2 # energy   -1.79866110 # occ.  2.00000000

ion      s     py     pz     px    dxy    dyz    dz2    dxz  x2-y2    tot
    1  0.191  0.041  0.004  0.000  0.000  0.000  0.000  0.000  0.000  0.237
    2  0.191  0.041  0.004  0.000  0.000  0.000  0.000  0.000  0.000  0.237
tot    0.383  0.082  0.009  0.000  0.000  0.000  0.000  0.000  0.000  0.474

band     3 # energy    2.56293500 # occ.  2.00000000

ion      s     py     pz     px    dxy    dyz    dz2    dxz  x2-y2    tot
    1  0.003  0.016  0.080  0.083  0.000  0.000  0.000  0.000  0.000  0.182
    2  0.003  0.016  0.080  0.083  0.000  0.000  0.000  0.000  0.000  0.182
tot    0.005  0.032  0.161  0.166  0.000  0.000  0.000  0.000  0.000  0.364

band     4 # energy    2.56294788 # occ.  2.00000000

ion      s     py     pz     px    dxy    dyz    dz2    dxz  x2-y2    tot
    1  0.003  0.016  0.080  0.083  0.000  0.000  0.000  0.000  0.000  0.182
    2  0.003  0.016  0.080  0.083  0.000  0.000  0.000  0.000  0.000  0.182
tot    0.005  0.032  0.161  0.166  0.000  0.000  0.000  0.000  0.000  0.364

band     5 # energy    7.85646327 # occ.  0.00000000

ion      s     py     pz     px    dxy    dyz    dz2    dxz  x2-y2    tot
    1  0.040  0.029  0.015  0.024  0.000  0.000  0.000  0.000  0.000  0.109
    2  0.040  0.029  0.015  0.024  0.000  0.000  0.000  0.000  0.000  0.109
tot    0.081  0.058  0.031  0.049  0.000  0.000  0.000  0.000  0.000  0.218

band     6 # energy    7.85646676 # occ.  0.00000000

ion      s     py     pz     px    dxy    dyz    dz2    dxz  x2-y2    tot
    1  0.040  0.029  0.015  0.024  0.000  0.000  0.000  0.000  0.000  0.109
    2  0.040  0.029  0.015  0.024  0.000  0.000  0.000  0.000  0.000  0.109
tot    0.081  0.058  0.031  0.049  0.000  0.000  0.000  0.000  0.000  0.218

band     7 # energy   14.07199808 # occ.  0.00000000

ion      s     py     pz     px    dxy    dyz    dz2    dxz  x2-y2    tot
    1  0.019  0.028  0.046  0.077  0.000  0.000  0.000  0.000  0.000  0.170
    2  0.019  0.028  0.046  0.077  0.000  0.000  0.000  0.000  0.000  0.170
tot    0.039  0.056  0.092  0.154  0.000  0.000  0.000  0.000  0.000  0.340

band     8 # energy   14.07207085 # occ.  0.00000000

ion      s     py     pz     px    dxy    dyz    dz2    dxz  x2-y2    tot
    1  0.019  0.028  0.046  0.077  0.000  0.000  0.000  0.000  0.000  0.170
    2  0.019  0.028  0.046  0.077  0.000  0.000  0.000  0.000  0.000  0.170
tot    0.039  0.056  0.091  0.154  0.000  0.000  0.000  0.000  0.000  0.339


 k-point    11 :    0.50000000 0.13157895 0.63157895     weight = 0.00714286

band     1 # energy   -1.78534366 # occ.  2.00000000

ion      s     py     pz     px    dxy    dyz    dz2    dxz  x2-y2    tot
    1  0.192  0.040  0.005  0.000  0.000  0.000  0.000  0.000  0.000  0.237
    2  0.192  0.040  0.005  0.000  0.000  0.000  0.000  0.000  0.000  0.237
tot    0.385  0.079  0.011  0.000  0.000  0.000  0.000  0.000  0.000  0.475

band     2 # energy   -1.78534186 # occ.  2.00000000
