
     Program PROJWFC v.7.3 starts on  9Jun2025 at 11:13:15 

     This program is part of the open-source Quantum ESPRESSO suite
     for quantum simulation of materials; please cite
         "P. Giannozzi et al., J. Phys.:Condens. Matter 21 395502 (2009);
         "P. Giannozzi et al., J. Phys.:Condens. Matter 29 465901 (2017);
         "P. Giannozzi et al., J. Chem. Phys. 152 154105 (2020);
          URL http://www.quantum-espresso.org", 
     in publications or presentations arising from this work. More details at
     http://www.quantum-espresso.org/quote

     Parallel version (MPI), running on     2 processors

     MPI processes distributed on     1 nodes
     R & G space division:  proc/nbgrp/npool/nimage =       2
     2606 MiB available memory on the printing compute node when the environment starts


     Reading xml data from directory:

     /u/51/gutierm2/unix/Software/YAIV/yaiv/dev/Tutorial/data/qe/tmp/Si.save/
     file Si.pbe-n-kjpaw_psl.1.0.0.UPF: wavefunction(s)  3S 3P renormalized

     IMPORTANT: XC functional enforced from input :
     Exchange-correlation= PBE
                           (   1   4   3   4   0   0   0)
     Any further DFT definition will be discarded
     Please, verify this is what you really want


     Parallelization info
     --------------------
     sticks:   dense  smooth     PW     G-vecs:    dense   smooth      PW
     Min          36      36     30                  205      205     153
     Max          37      37     31                  206      206     154
     Sum          73      73     61                  411      411     307

     Using Slab Decomposition


     Check: negative core charge=   -0.005178

     negative rho (up, down):  9.218E-04 0.000E+00

     Gaussian broadening (read from input): ngauss,degauss=   0    0.001000


     Calling projwave .... 
     Subspace diagonalization in iterative solution of the eigenvalue problem:
     a serial algorithm will be used


  Problem Sizes 
  natomwfc =           16
  nbnd     =           16
  nkstot   =          142
  npwx     =           86
  nkb      =           36


     Atomic states used for projection
     (read from pseudopotential files):

     state #   1: atom   1 (Si ), wfc  1 (l=0 j=0.5 m_j=-0.5)
     state #   2: atom   1 (Si ), wfc  1 (l=0 j=0.5 m_j= 0.5)
     state #   3: atom   1 (Si ), wfc  2 (l=1 j=0.5 m_j=-0.5)
     state #   4: atom   1 (Si ), wfc  2 (l=1 j=0.5 m_j= 0.5)
     state #   5: atom   1 (Si ), wfc  3 (l=1 j=1.5 m_j=-1.5)
     state #   6: atom   1 (Si ), wfc  3 (l=1 j=1.5 m_j=-0.5)
     state #   7: atom   1 (Si ), wfc  3 (l=1 j=1.5 m_j= 0.5)
     state #   8: atom   1 (Si ), wfc  3 (l=1 j=1.5 m_j= 1.5)
     state #   9: atom   2 (Si ), wfc  1 (l=0 j=0.5 m_j=-0.5)
     state #  10: atom   2 (Si ), wfc  1 (l=0 j=0.5 m_j= 0.5)
     state #  11: atom   2 (Si ), wfc  2 (l=1 j=0.5 m_j=-0.5)
     state #  12: atom   2 (Si ), wfc  2 (l=1 j=0.5 m_j= 0.5)
     state #  13: atom   2 (Si ), wfc  3 (l=1 j=1.5 m_j=-1.5)
     state #  14: atom   2 (Si ), wfc  3 (l=1 j=1.5 m_j=-0.5)
     state #  15: atom   2 (Si ), wfc  3 (l=1 j=1.5 m_j= 0.5)
     state #  16: atom   2 (Si ), wfc  3 (l=1 j=1.5 m_j= 1.5)

 k =   0.0000000000  0.7071067812  0.0000000000
==== e(   1) =    -1.50822 eV ==== 
     psi = 0.135*[#   1]+0.135*[#   2]+0.135*[#   9]+0.135*[#  10]+0.038*[#   3]
          +0.038*[#   4]+0.038*[#   5]+0.038*[#   6]+0.038*[#   7]+0.038*[#   8]
          +0.038*[#  11]+0.038*[#  12]+0.038*[#  13]+0.038*[#  14]+0.038*[#  15]
          +0.038*[#  16]
    |psi|^2 = 0.995
==== e(   2) =    -1.50822 eV ==== 
     psi = 0.135*[#   1]+0.135*[#   2]+0.135*[#   9]+0.135*[#  10]+0.038*[#   3]
          +0.038*[#   4]+0.038*[#   5]+0.038*[#   6]+0.038*[#   7]+0.038*[#   8]
          +0.038*[#  11]+0.038*[#  12]+0.038*[#  13]+0.038*[#  14]+0.038*[#  15]
          +0.038*[#  16]
    |psi|^2 = 0.995
==== e(   3) =    -1.50822 eV ==== 
     psi = 0.135*[#   1]+0.135*[#   2]+0.135*[#   9]+0.135*[#  10]+0.038*[#   3]
          +0.038*[#   4]+0.038*[#   5]+0.038*[#   6]+0.038*[#   7]+0.038*[#   8]
          +0.038*[#  11]+0.038*[#  12]+0.038*[#  13]+0.038*[#  14]+0.038*[#  15]
          +0.038*[#  16]
    |psi|^2 = 0.995
==== e(   4) =    -1.50822 eV ==== 
     psi = 0.135*[#   1]+0.135*[#   2]+0.135*[#   9]+0.135*[#  10]+0.038*[#   3]
          +0.038*[#   4]+0.038*[#   5]+0.038*[#   6]+0.038*[#   7]+0.038*[#   8]
          +0.038*[#  11]+0.038*[#  12]+0.038*[#  13]+0.038*[#  14]+0.038*[#  15]
          +0.038*[#  16]
    |psi|^2 = 0.995
==== e(   5) =     3.30064 eV ==== 
     psi = 0.083*[#   3]+0.083*[#   4]+0.083*[#   5]+0.083*[#   6]+0.083*[#   7]
          +0.083*[#   8]+0.083*[#  11]+0.083*[#  12]+0.083*[#  13]+0.083*[#  14]
          +0.083*[#  15]+0.083*[#  16]
    |psi|^2 = 0.997
==== e(   6) =     3.30064 eV ==== 
     psi = 0.083*[#   3]+0.083*[#   4]+0.083*[#   5]+0.083*[#   6]+0.083*[#   7]
          +0.083*[#   8]+0.083*[#  11]+0.083*[#  12]+0.083*[#  13]+0.083*[#  14]
          +0.083*[#  15]+0.083*[#  16]
    |psi|^2 = 0.997
==== e(   7) =     3.30064 eV ==== 
     psi = 0.083*[#   3]+0.083*[#   4]+0.083*[#   5]+0.083*[#   6]+0.083*[#   7]
          +0.083*[#   8]+0.083*[#  11]+0.083*[#  12]+0.083*[#  13]+0.083*[#  14]
          +0.083*[#  15]+0.083*[#  16]
    |psi|^2 = 0.997
==== e(   8) =     3.30064 eV ==== 
     psi = 0.083*[#   3]+0.083*[#   4]+0.083*[#   5]+0.083*[#   6]+0.083*[#   7]
          +0.083*[#   8]+0.083*[#  11]+0.083*[#  12]+0.083*[#  13]+0.083*[#  14]
          +0.083*[#  15]+0.083*[#  16]
    |psi|^2 = 0.997
==== e(   9) =     6.51499 eV ==== 
     psi = 0.088*[#   1]+0.088*[#   2]+0.088*[#   9]+0.088*[#  10]+0.038*[#   3]
          +0.038*[#   4]+0.038*[#   5]+0.038*[#   6]+0.038*[#   7]+0.038*[#   8]
          +0.038*[#  11]+0.038*[#  12]+0.038*[#  13]+0.038*[#  14]+0.038*[#  15]
          +0.038*[#  16]
    |psi|^2 = 0.813
==== e(  10) =     6.51499 eV ==== 
     psi = 0.088*[#   1]+0.088*[#   2]+0.088*[#   9]+0.088*[#  10]+0.038*[#   3]
          +0.038*[#   4]+0.038*[#   5]+0.038*[#   6]+0.038*[#   7]+0.038*[#   8]
          +0.038*[#  11]+0.038*[#  12]+0.038*[#  13]+0.038*[#  14]+0.038*[#  15]
          +0.038*[#  16]
    |psi|^2 = 0.813
==== e(  11) =     6.51499 eV ==== 
     psi = 0.088*[#   1]+0.088*[#   2]+0.088*[#   9]+0.088*[#  10]+0.038*[#   3]
          +0.038*[#   4]+0.038*[#   5]+0.038*[#   6]+0.038*[#   7]+0.038*[#   8]
          +0.038*[#  11]+0.038*[#  12]+0.038*[#  13]+0.038*[#  14]+0.038*[#  15]
          +0.038*[#  16]
    |psi|^2 = 0.813
==== e(  12) =     6.51499 eV ==== 
     psi = 0.088*[#   1]+0.088*[#   2]+0.088*[#   9]+0.088*[#  10]+0.038*[#   3]
          +0.038*[#   4]+0.038*[#   5]+0.038*[#   6]+0.038*[#   7]+0.038*[#   8]
          +0.038*[#  11]+0.038*[#  12]+0.038*[#  13]+0.038*[#  14]+0.038*[#  15]
          +0.038*[#  16]
    |psi|^2 = 0.813
==== e(  13) =    16.29655 eV ==== 
     psi = 0.077*[#   3]+0.077*[#   4]+0.077*[#   5]+0.077*[#   6]+0.077*[#   7]
          +0.077*[#   8]+0.077*[#  11]+0.077*[#  12]+0.077*[#  13]+0.077*[#  14]
          +0.077*[#  15]+0.077*[#  16]
    |psi|^2 = 0.927
==== e(  14) =    16.29655 eV ==== 
     psi = 0.077*[#   3]+0.077*[#   4]+0.077*[#   5]+0.077*[#   6]+0.077*[#   7]
          +0.077*[#   8]+0.077*[#  11]+0.077*[#  12]+0.077*[#  13]+0.077*[#  14]
          +0.077*[#  15]+0.077*[#  16]
    |psi|^2 = 0.927
==== e(  15) =    16.29655 eV ==== 
     psi = 0.077*[#   3]+0.077*[#   4]+0.077*[#   5]+0.077*[#   6]+0.077*[#   7]
          +0.077*[#   8]+0.077*[#  11]+0.077*[#  12]+0.077*[#  13]+0.077*[#  14]
          +0.077*[#  15]+0.077*[#  16]
    |psi|^2 = 0.927
==== e(  16) =    16.29655 eV ==== 
     psi = 0.077*[#   3]+0.077*[#   4]+0.077*[#   5]+0.077*[#   6]+0.077*[#   7]
          +0.077*[#   8]+0.077*[#  11]+0.077*[#  12]+0.077*[#  13]+0.077*[#  14]
          +0.077*[#  15]+0.077*[#  16]
    |psi|^2 = 0.927

 k =   0.0176776695  0.7071067812  0.0000000000
==== e(   1) =    -1.50711 eV ==== 
     psi = 0.135*[#   1]+0.135*[#   2]+0.135*[#   9]+0.135*[#  10]+0.038*[#   3]
          +0.038*[#   4]+0.038*[#   5]+0.038*[#   6]+0.038*[#   7]+0.038*[#   8]
          +0.038*[#  11]+0.038*[#  12]+0.038*[#  13]+0.038*[#  14]+0.038*[#  15]
          +0.038*[#  16]
    |psi|^2 = 0.995
==== e(   2) =    -1.50711 eV ==== 
     psi = 0.135*[#   1]+0.135*[#   2]+0.135*[#   9]+0.135*[#  10]+0.038*[#   3]
          +0.038*[#   4]+0.038*[#   5]+0.038*[#   6]+0.038*[#   7]+0.038*[#   8]
          +0.038*[#  11]+0.038*[#  12]+0.038*[#  13]+0.038*[#  14]+0.038*[#  15]
          +0.038*[#  16]
    |psi|^2 = 0.995
==== e(   3) =    -1.50711 eV ==== 
     psi = 0.135*[#   1]+0.135*[#   2]+0.135*[#   9]+0.135*[#  10]+0.038*[#   3]
          +0.038*[#   4]+0.038*[#   5]+0.038*[#   6]+0.038*[#   7]+0.038*[#   8]
          +0.038*[#  11]+0.038*[#  12]+0.038*[#  13]+0.038*[#  14]+0.038*[#  15]
          +0.038*[#  16]
    |psi|^2 = 0.995
==== e(   4) =    -1.50711 eV ==== 
     psi = 0.135*[#   1]+0.135*[#   2]+0.135*[#   9]+0.135*[#  10]+0.038*[#   3]
          +0.038*[#   4]+0.038*[#   5]+0.038*[#   6]+0.038*[#   7]+0.038*[#   8]
          +0.038*[#  11]+0.038*[#  12]+0.038*[#  13]+0.038*[#  14]+0.038*[#  15]
          +0.038*[#  16]
    |psi|^2 = 0.995
==== e(   5) =     3.29047 eV ==== 
     psi = 0.083*[#   3]+0.083*[#   4]+0.083*[#   5]+0.083*[#   6]+0.083*[#   7]
          +0.083*[#   8]+0.083*[#  11]+0.083*[#  12]+0.083*[#  13]+0.083*[#  14]
          +0.083*[#  15]+0.083*[#  16]
    |psi|^2 = 0.997
==== e(   6) =     3.29047 eV ==== 
     psi = 0.083*[#   3]+0.083*[#   4]+0.083*[#   5]+0.083*[#   6]+0.083*[#   7]
          +0.083*[#   8]+0.083*[#  11]+0.083*[#  12]+0.083*[#  13]+0.083*[#  14]
          +0.083*[#  15]+0.083*[#  16]
    |psi|^2 = 0.997
==== e(   7) =     3.29047 eV ==== 
     psi = 0.083*[#   3]+0.083*[#   4]+0.083*[#   5]+0.083*[#   6]+0.083*[#   7]
          +0.083*[#   8]+0.083*[#  11]+0.083*[#  12]+0.083*[#  13]+0.083*[#  14]
          +0.083*[#  15]+0.083*[#  16]
    |psi|^2 = 0.997
==== e(   8) =     3.29047 eV ==== 
     psi = 0.083*[#   3]+0.083*[#   4]+0.083*[#   5]+0.083*[#   6]+0.083*[#   7]
          +0.083*[#   8]+0.083*[#  11]+0.083*[#  12]+0.083*[#  13]+0.083*[#  14]
          +0.083*[#  15]+0.083*[#  16]
    |psi|^2 = 0.997
==== e(   9) =     6.53202 eV ==== 
     psi = 0.088*[#   1]+0.088*[#   2]+0.088*[#   9]+0.088*[#  10]+0.038*[#   3]
          +0.038*[#   4]+0.038*[#   5]+0.038*[#   6]+0.038*[#   7]+0.038*[#   8]
          +0.038*[#  11]+0.038*[#  12]+0.038*[#  13]+0.038*[#  14]+0.038*[#  15]
          +0.038*[#  16]
    |psi|^2 = 0.812
==== e(  10) =     6.53202 eV ==== 
     psi = 0.088*[#   1]+0.088*[#   2]+0.088*[#   9]+0.088*[#  10]+0.038*[#   3]
          +0.038*[#   4]+0.038*[#   5]+0.038*[#   6]+0.038*[#   7]+0.038*[#   8]
          +0.038*[#  11]+0.038*[#  12]+0.038*[#  13]+0.038*[#  14]+0.038*[#  15]
          +0.038*[#  16]
    |psi|^2 = 0.812
==== e(  11) =     6.53202 eV ==== 
     psi = 0.088*[#   1]+0.088*[#   2]+0.088*[#   9]+0.088*[#  10]+0.038*[#   3]
          +0.038*[#   4]+0.038*[#   5]+0.038*[#   6]+0.038*[#   7]+0.038*[#   8]
          +0.038*[#  11]+0.038*[#  12]+0.038*[#  13]+0.038*[#  14]+0.038*[#  15]
          +0.038*[#  16]
    |psi|^2 = 0.812
==== e(  12) =     6.53202 eV ==== 
     psi = 0.088*[#   1]+0.088*[#   2]+0.088*[#   9]+0.088*[#  10]+0.038*[#   3]
          +0.038*[#   4]+0.038*[#   5]+0.038*[#   6]+0.038*[#   7]+0.038*[#   8]
          +0.038*[#  11]+0.038*[#  12]+0.038*[#  13]+0.038*[#  14]+0.038*[#  15]
          +0.038*[#  16]
    |psi|^2 = 0.812
==== e(  13) =    16.27232 eV ==== 
     psi = 0.077*[#   3]+0.077*[#   4]+0.077*[#   5]+0.077*[#   6]+0.077*[#   7]
          +0.077*[#   8]+0.077*[#  11]+0.077*[#  12]+0.077*[#  13]+0.077*[#  14]
          +0.077*[#  15]+0.077*[#  16]
    |psi|^2 = 0.922
==== e(  14) =    16.27232 eV ==== 
     psi = 0.077*[#   3]+0.077*[#   4]+0.077*[#   5]+0.077*[#   6]+0.077*[#   7]
          +0.077*[#   8]+0.077*[#  11]+0.077*[#  12]+0.077*[#  13]+0.077*[#  14]
          +0.077*[#  15]+0.077*[#  16]
    |psi|^2 = 0.922
==== e(  15) =    16.27232 eV ==== 
     psi = 0.077*[#   3]+0.077*[#   4]+0.077*[#   5]+0.077*[#   6]+0.077*[#   7]
          +0.077*[#   8]+0.077*[#  11]+0.077*[#  12]+0.077*[#  13]+0.077*[#  14]
          +0.077*[#  15]+0.077*[#  16]
    |psi|^2 = 0.922
==== e(  16) =    16.27232 eV ==== 
     psi = 0.077*[#   3]+0.077*[#   4]+0.077*[#   5]+0.077*[#   6]+0.077*[#   7]
          +0.077*[#   8]+0.077*[#  11]+0.077*[#  12]+0.077*[#  13]+0.077*[#  14]
          +0.077*[#  15]+0.077*[#  16]
    |psi|^2 = 0.922

 k =   0.0353553391  0.7071067812  0.0000000000
==== e(   1) =    -1.50381 eV ==== 
     psi = 0.135*[#   1]+0.135*[#   2]+0.135*[#   9]+0.135*[#  10]+0.038*[#   3]
          +0.038*[#   4]+0.038*[#   5]+0.038*[#   6]+0.038*[#   7]+0.038*[#   8]
          +0.038*[#  11]+0.038*[#  12]+0.038*[#  13]+0.038*[#  14]+0.038*[#  15]
          +0.038*[#  16]
    |psi|^2 = 0.995
==== e(   2) =    -1.50381 eV ==== 
     psi = 0.135*[#   1]+0.135*[#   2]+0.135*[#   9]+0.135*[#  10]+0.038*[#   3]
          +0.038*[#   4]+0.038*[#   5]+0.038*[#   6]+0.038*[#   7]+0.038*[#   8]
          +0.038*[#  11]+0.038*[#  12]+0.038*[#  13]+0.038*[#  14]+0.038*[#  15]
          +0.038*[#  16]
    |psi|^2 = 0.995
==== e(   3) =    -1.50381 eV ==== 
     psi = 0.135*[#   1]+0.135*[#   2]+0.135*[#   9]+0.135*[#  10]+0.038*[#   3]
          +0.038*[#   4]+0.038*[#   5]+0.038*[#   6]+0.038*[#   7]+0.038*[#   8]
          +0.038*[#  11]+0.038*[#  12]+0.038*[#  13]+0.038*[#  14]+0.038*[#  15]
          +0.038*[#  16]
    |psi|^2 = 0.995
==== e(   4) =    -1.50381 eV ==== 
     psi = 0.135*[#   1]+0.135*[#   2]+0.135*[#   9]+0.135*[#  10]+0.038*[#   3]
          +0.038*[#   4]+0.038*[#   5]+0.038*[#   6]+0.038*[#   7]+0.038*[#   8]
          +0.038*[#  11]+0.038*[#  12]+0.038*[#  13]+0.038*[#  14]+0.038*[#  15]
          +0.038*[#  16]
    |psi|^2 = 0.995
==== e(   5) =     3.26069 eV ==== 
     psi = 0.083*[#   3]+0.083*[#   4]+0.083*[#   5]+0.083*[#   6]+0.083*[#   7]
          +0.083*[#   8]+0.083*[#  11]+0.083*[#  12]+0.083*[#  13]+0.083*[#  14]
          +0.083*[#  15]+0.083*[#  16]
    |psi|^2 = 0.996
==== e(   6) =     3.26069 eV ==== 
     psi = 0.083*[#   3]+0.083*[#   4]+0.083*[#   5]+0.083*[#   6]+0.083*[#   7]
          +0.083*[#   8]+0.083*[#  11]+0.083*[#  12]+0.083*[#  13]+0.083*[#  14]
          +0.083*[#  15]+0.083*[#  16]
    |psi|^2 = 0.996
==== e(   7) =     3.26069 eV ==== 
     psi = 0.083*[#   3]+0.083*[#   4]+0.083*[#   5]+0.083*[#   6]+0.083*[#   7]
          +0.083*[#   8]+0.083*[#  11]+0.083*[#  12]+0.083*[#  13]+0.083*[#  14]
          +0.083*[#  15]+0.083*[#  16]
    |psi|^2 = 0.996
==== e(   8) =     3.26069 eV ==== 
     psi = 0.083*[#   3]+0.083*[#   4]+0.083*[#   5]+0.083*[#   6]+0.083*[#   7]
          +0.083*[#   8]+0.083*[#  11]+0.083*[#  12]+0.083*[#  13]+0.083*[#  14]
          +0.083*[#  15]+0.083*[#  16]
    |psi|^2 = 0.996
==== e(   9) =     6.58241 eV ==== 
     psi = 0.087*[#   1]+0.087*[#   2]+0.087*[#   9]+0.087*[#  10]+0.039*[#   3]
          +0.039*[#   4]+0.039*[#   5]+0.039*[#   6]+0.039*[#   7]+0.039*[#   8]
          +0.039*[#  11]+0.039*[#  12]+0.039*[#  13]+0.039*[#  14]+0.039*[#  15]
          +0.039*[#  16]
    |psi|^2 = 0.811
==== e(  10) =     6.58241 eV ==== 
     psi = 0.087*[#   1]+0.087*[#   2]+0.087*[#   9]+0.087*[#  10]+0.039*[#   3]
          +0.039*[#   4]+0.039*[#   5]+0.039*[#   6]+0.039*[#   7]+0.039*[#   8]
          +0.039*[#  11]+0.039*[#  12]+0.039*[#  13]+0.039*[#  14]+0.039*[#  15]
          +0.039*[#  16]
    |psi|^2 = 0.811
==== e(  11) =     6.58241 eV ==== 
     psi = 0.087*[#   1]+0.087*[#   2]+0.087*[#   9]+0.087*[#  10]+0.039*[#   3]
          +0.039*[#   4]+0.039*[#   5]+0.039*[#   6]+0.039*[#   7]+0.039*[#   8]
          +0.039*[#  11]+0.039*[#  12]+0.039*[#  13]+0.039*[#  14]+0.039*[#  15]
          +0.039*[#  16]
    |psi|^2 = 0.811
==== e(  12) =     6.58241 eV ==== 
     psi = 0.087*[#   1]+0.087*[#   2]+0.087*[#   9]+0.087*[#  10]+0.039*[#   3]
          +0.039*[#   4]+0.039*[#   5]+0.039*[#   6]+0.039*[#   7]+0.039*[#   8]
          +0.039*[#  11]+0.039*[#  12]+0.039*[#  13]+0.039*[#  14]+0.039*[#  15]
          +0.039*[#  16]
    |psi|^2 = 0.811
==== e(  13) =    16.19494 eV ==== 
     psi = 0.074*[#   3]+0.074*[#   4]+0.074*[#   5]+0.074*[#   6]+0.074*[#   7]
          +0.074*[#   8]+0.074*[#  11]+0.074*[#  12]+0.074*[#  13]+0.074*[#  14]
          +0.074*[#  15]+0.074*[#  16]+0.001*[#   1]+0.001*[#   2]+0.001*[#   9]
          +0.001*[#  10]
    |psi|^2 = 0.897
==== e(  14) =    16.19494 eV ==== 
     psi = 0.074*[#   3]+0.074*[#   4]+0.074*[#   5]+0.074*[#   6]+0.074*[#   7]
          +0.074*[#   8]+0.074*[#  11]+0.074*[#  12]+0.074*[#  13]+0.074*[#  14]
          +0.074*[#  15]+0.074*[#  16]+0.001*[#   1]+0.001*[#   2]+0.001*[#   9]
          +0.001*[#  10]
    |psi|^2 = 0.897
==== e(  15) =    16.19494 eV ==== 
     psi = 0.074*[#   3]+0.074*[#   4]+0.074*[#   5]+0.074*[#   6]+0.074*[#   7]
          +0.074*[#   8]+0.074*[#  11]+0.074*[#  12]+0.074*[#  13]+0.074*[#  14]
          +0.074*[#  15]+0.074*[#  16]+0.001*[#   1]+0.001*[#   2]+0.001*[#   9]
          +0.001*[#  10]
    |psi|^2 = 0.897
==== e(  16) =    16.19494 eV ==== 
     psi = 0.074*[#   3]+0.074*[#   4]+0.074*[#   5]+0.074*[#   6]+0.074*[#   7]
          +0.074*[#   8]+0.074*[#  11]+0.074*[#  12]+0.074*[#  13]+0.074*[#  14]
          +0.074*[#  15]+0.074*[#  16]+0.001*[#   1]+0.001*[#   2]+0.001*[#   9]
          +0.001*[#  10]
    |psi|^2 = 0.897

 k =   0.0530330086  0.7071067812  0.0000000000
==== e(   1) =    -1.49837 eV ==== 
     psi = 0.136*[#   1]+0.136*[#   2]+0.136*[#   9]+0.136*[#  10]+0.038*[#   3]
          +0.038*[#   4]+0.038*[#   5]+0.038*[#   6]+0.038*[#   7]+0.038*[#   8]
          +0.038*[#  11]+0.038*[#  12]+0.038*[#  13]+0.038*[#  14]+0.038*[#  15]
          +0.038*[#  16]
    |psi|^2 = 0.995
==== e(   2) =    -1.49837 eV ==== 
     psi = 0.136*[#   1]+0.136*[#   2]+0.136*[#   9]+0.136*[#  10]+0.038*[#   3]
          +0.038*[#   4]+0.038*[#   5]+0.038*[#   6]+0.038*[#   7]+0.038*[#   8]
          +0.038*[#  11]+0.038*[#  12]+0.038*[#  13]+0.038*[#  14]+0.038*[#  15]
          +0.038*[#  16]
    |psi|^2 = 0.995
==== e(   3) =    -1.49837 eV ==== 
     psi = 0.136*[#   1]+0.136*[#   2]+0.136*[#   9]+0.136*[#  10]+0.038*[#   3]
          +0.038*[#   4]+0.038*[#   5]+0.038*[#   6]+0.038*[#   7]+0.038*[#   8]
          +0.038*[#  11]+0.038*[#  12]+0.038*[#  13]+0.038*[#  14]+0.038*[#  15]
          +0.038*[#  16]
    |psi|^2 = 0.995
==== e(   4) =    -1.49837 eV ==== 
     psi = 0.136*[#   1]+0.136*[#   2]+0.136*[#   9]+0.136*[#  10]+0.038*[#   3]
          +0.038*[#   4]+0.038*[#   5]+0.038*[#   6]+0.038*[#   7]+0.038*[#   8]
          +0.038*[#  11]+0.038*[#  12]+0.038*[#  13]+0.038*[#  14]+0.038*[#  15]
          +0.038*[#  16]
    |psi|^2 = 0.995
==== e(   5) =     3.21331 eV ==== 
     psi = 0.082*[#   3]+0.082*[#   4]+0.082*[#   5]+0.082*[#   6]+0.082*[#   7]
          +0.082*[#   8]+0.082*[#  11]+0.082*[#  12]+0.082*[#  13]+0.082*[#  14]
          +0.082*[#  15]+0.082*[#  16]+0.002*[#   1]+0.002*[#   2]+0.002*[#   9]
          +0.002*[#  10]
    |psi|^2 = 0.996
==== e(   6) =     3.21331 eV ==== 
     psi = 0.082*[#   3]+0.082*[#   4]+0.082*[#   5]+0.082*[#   6]+0.082*[#   7]
          +0.082*[#   8]+0.082*[#  11]+0.082*[#  12]+0.082*[#  13]+0.082*[#  14]
          +0.082*[#  15]+0.082*[#  16]+0.002*[#   1]+0.002*[#   2]+0.002*[#   9]
          +0.002*[#  10]
    |psi|^2 = 0.996
==== e(   7) =     3.21331 eV ==== 
     psi = 0.082*[#   3]+0.082*[#   4]+0.082*[#   5]+0.082*[#   6]+0.082*[#   7]
          +0.082*[#   8]+0.082*[#  11]+0.082*[#  12]+0.082*[#  13]+0.082*[#  14]
          +0.082*[#  15]+0.082*[#  16]+0.002*[#   1]+0.002*[#   2]+0.002*[#   9]
          +0.002*[#  10]
    |psi|^2 = 0.996
==== e(   8) =     3.21331 eV ==== 
     psi = 0.082*[#   3]+0.082*[#   4]+0.082*[#   5]+0.082*[#   6]+0.082*[#   7]
          +0.082*[#   8]+0.082*[#  11]+0.082*[#  12]+0.082*[#  13]+0.082*[#  14]
          +0.082*[#  15]+0.082*[#  16]+0.002*[#   1]+0.002*[#   2]+0.002*[#   9]
          +0.002*[#  10]
    |psi|^2 = 0.996
==== e(   9) =     6.66418 eV ==== 
     psi = 0.085*[#   1]+0.085*[#   2]+0.085*[#   9]+0.085*[#  10]+0.039*[#   3]
          +0.039*[#   4]+0.039*[#   5]+0.039*[#   6]+0.039*[#   7]+0.039*[#   8]
          +0.039*[#  11]+0.039*[#  12]+0.039*[#  13]+0.039*[#  14]+0.039*[#  15]
          +0.039*[#  16]
    |psi|^2 = 0.808
==== e(  10) =     6.66418 eV ==== 
     psi = 0.085*[#   1]+0.085*[#   2]+0.085*[#   9]+0.085*[#  10]+0.039*[#   3]
          +0.039*[#   4]+0.039*[#   5]+0.039*[#   6]+0.039*[#   7]+0.039*[#   8]
          +0.039*[#  11]+0.039*[#  12]+0.039*[#  13]+0.039*[#  14]+0.039*[#  15]
          +0.039*[#  16]
    |psi|^2 = 0.808
==== e(  11) =     6.66418 eV ==== 
     psi = 0.085*[#   1]+0.085*[#   2]+0.085*[#   9]+0.085*[#  10]+0.039*[#   3]
          +0.039*[#   4]+0.039*[#   5]+0.039*[#   6]+0.039*[#   7]+0.039*[#   8]
          +0.039*[#  11]+0.039*[#  12]+0.039*[#  13]+0.039*[#  14]+0.039*[#  15]
          +0.039*[#  16]
    |psi|^2 = 0.808
==== e(  12) =     6.66418 eV ==== 
     psi = 0.085*[#   1]+0.085*[#   2]+0.085*[#   9]+0.085*[#  10]+0.039*[#   3]
          +0.039*[#   4]+0.039*[#   5]+0.039*[#   6]+0.039*[#   7]+0.039*[#   8]
          +0.039*[#  11]+0.039*[#  12]+0.039*[#  13]+0.039*[#  14]+0.039*[#  15]
          +0.039*[#  16]
    |psi|^2 = 0.808
==== e(  13) =    16.05518 eV ==== 
     psi = 0.069*[#   3]+0.069*[#   4]+0.069*[#   5]+0.069*[#   6]+0.069*[#   7]
          +0.069*[#   8]+0.069*[#  11]+0.069*[#  12]+0.069*[#  13]+0.069*[#  14]
          +0.069*[#  15]+0.069*[#  16]+0.003*[#   1]+0.003*[#   2]+0.003*[#   9]
          +0.003*[#  10]
    |psi|^2 = 0.842
==== e(  14) =    16.05518 eV ==== 
     psi = 0.069*[#   3]+0.069*[#   4]+0.069*[#   5]+0.069*[#   6]+0.069*[#   7]
          +0.069*[#   8]+0.069*[#  11]+0.069*[#  12]+0.069*[#  13]+0.069*[#  14]
          +0.069*[#  15]+0.069*[#  16]+0.003*[#   1]+0.003*[#   2]+0.003*[#   9]
          +0.003*[#  10]
    |psi|^2 = 0.842
==== e(  15) =    16.05518 eV ==== 
     psi = 0.069*[#   3]+0.069*[#   4]+0.069*[#   5]+0.069*[#   6]+0.069*[#   7]
          +0.069*[#   8]+0.069*[#  11]+0.069*[#  12]+0.069*[#  13]+0.069*[#  14]
          +0.069*[#  15]+0.069*[#  16]+0.003*[#   1]+0.003*[#   2]+0.003*[#   9]
          +0.003*[#  10]
    |psi|^2 = 0.842
==== e(  16) =    16.05518 eV ==== 
     psi = 0.069*[#   3]+0.069*[#   4]+0.069*[#   5]+0.069*[#   6]+0.069*[#   7]
          +0.069*[#   8]+0.069*[#  11]+0.069*[#  12]+0.069*[#  13]+0.069*[#  14]
          +0.069*[#  15]+0.069*[#  16]+0.003*[#   1]+0.003*[#   2]+0.003*[#   9]
          +0.003*[#  10]
    |psi|^2 = 0.842

 k =   0.0707106781  0.7071067812 -0.0000000000
==== e(   1) =    -1.49089 eV ==== 
     psi = 0.136*[#   1]+0.136*[#   2]+0.136*[#   9]+0.136*[#  10]+0.038*[#   3]
          +0.038*[#   4]+0.038*[#   5]+0.038*[#   6]+0.038*[#   7]+0.038*[#   8]
          +0.038*[#  11]+0.038*[#  12]+0.038*[#  13]+0.038*[#  14]+0.038*[#  15]
          +0.038*[#  16]
    |psi|^2 = 0.995
==== e(   2) =    -1.49089 eV ==== 
     psi = 0.136*[#   1]+0.136*[#   2]+0.136*[#   9]+0.136*[#  10]+0.038*[#   3]
          +0.038*[#   4]+0.038*[#   5]+0.038*[#   6]+0.038*[#   7]+0.038*[#   8]
          +0.038*[#  11]+0.038*[#  12]+0.038*[#  13]+0.038*[#  14]+0.038*[#  15]
          +0.038*[#  16]
    |psi|^2 = 0.995
==== e(   3) =    -1.49089 eV ==== 
     psi = 0.136*[#   1]+0.136*[#   2]+0.136*[#   9]+0.136*[#  10]+0.038*[#   3]
          +0.038*[#   4]+0.038*[#   5]+0.038*[#   6]+0.038*[#   7]+0.038*[#   8]
          +0.038*[#  11]+0.038*[#  12]+0.038*[#  13]+0.038*[#  14]+0.038*[#  15]
          +0.038*[#  16]
    |psi|^2 = 0.995
==== e(   4) =    -1.49089 eV ==== 
     psi = 0.136*[#   1]+0.136*[#   2]+0.136*[#   9]+0.136*[#  10]+0.038*[#   3]
          +0.038*[#   4]+0.038*[#   5]+0.038*[#   6]+0.038*[#   7]+0.038*[#   8]
          +0.038*[#  11]+0.038*[#  12]+0.038*[#  13]+0.038*[#  14]+0.038*[#  15]
          +0.038*[#  16]
    |psi|^2 = 0.995
==== e(   5) =     3.15121 eV ==== 
     psi = 0.082*[#   3]+0.082*[#   4]+0.082*[#   5]+0.082*[#   6]+0.082*[#   7]
          +0.082*[#   8]+0.082*[#  11]+0.082*[#  12]+0.082*[#  13]+0.082*[#  14]
          +0.082*[#  15]+0.082*[#  16]+0.003*[#   1]+0.003*[#   2]+0.003*[#   9]
          +0.003*[#  10]
    |psi|^2 = 0.995
==== e(   6) =     3.15121 eV ==== 
     psi = 0.082*[#   3]+0.082*[#   4]+0.082*[#   5]+0.082*[#   6]+0.082*[#   7]
          +0.082*[#   8]+0.082*[#  11]+0.082*[#  12]+0.082*[#  13]+0.082*[#  14]
          +0.082*[#  15]+0.082*[#  16]+0.003*[#   1]+0.003*[#   2]+0.003*[#   9]
          +0.003*[#  10]
    |psi|^2 = 0.995
==== e(   7) =     3.15121 eV ==== 
     psi = 0.082*[#   3]+0.082*[#   4]+0.082*[#   5]+0.082*[#   6]+0.082*[#   7]
          +0.082*[#   8]+0.082*[#  11]+0.082*[#  12]+0.082*[#  13]+0.082*[#  14]
          +0.082*[#  15]+0.082*[#  16]+0.003*[#   1]+0.003*[#   2]+0.003*[#   9]
          +0.003*[#  10]
    |psi|^2 = 0.995
==== e(   8) =     3.15121 eV ==== 
     psi = 0.082*[#   3]+0.082*[#   4]+0.082*[#   5]+0.082*[#   6]+0.082*[#   7]
          +0.082*[#   8]+0.082*[#  11]+0.082*[#  12]+0.082*[#  13]+0.082*[#  14]
          +0.082*[#  15]+0.082*[#  16]+0.003*[#   1]+0.003*[#   2]+0.003*[#   9]
          +0.003*[#  10]
    |psi|^2 = 0.995
==== e(   9) =     6.77450 eV ==== 
     psi = 0.082*[#   1]+0.082*[#   2]+0.082*[#   9]+0.082*[#  10]+0.040*[#   3]
          +0.040*[#   4]+0.040*[#   5]+0.040*[#   6]+0.040*[#   7]+0.040*[#   8]
          +0.040*[#  11]+0.040*[#  12]+0.040*[#  13]+0.040*[#  14]+0.040*[#  15]
          +0.040*[#  16]
    |psi|^2 = 0.804
==== e(  10) =     6.77450 eV ==== 
     psi = 0.082*[#   1]+0.082*[#   2]+0.082*[#   9]+0.082*[#  10]+0.040*[#   3]
          +0.040*[#   4]+0.040*[#   5]+0.040*[#   6]+0.040*[#   7]+0.040*[#   8]
          +0.040*[#  11]+0.040*[#  12]+0.040*[#  13]+0.040*[#  14]+0.040*[#  15]
          +0.040*[#  16]
    |psi|^2 = 0.804
==== e(  11) =     6.77450 eV ==== 
     psi = 0.082*[#   1]+0.082*[#   2]+0.082*[#   9]+0.082*[#  10]+0.040*[#   3]
          +0.040*[#   4]+0.040*[#   5]+0.040*[#   6]+0.040*[#   7]+0.040*[#   8]
          +0.040*[#  11]+0.040*[#  12]+0.040*[#  13]+0.040*[#  14]+0.040*[#  15]
          +0.040*[#  16]
    |psi|^2 = 0.804
==== e(  12) =     6.77450 eV ==== 
     psi = 0.082*[#   1]+0.082*[#   2]+0.082*[#   9]+0.082*[#  10]+0.040*[#   3]
          +0.040*[#   4]+0.040*[#   5]+0.040*[#   6]+0.040*[#   7]+0.040*[#   8]
          +0.040*[#  11]+0.040*[#  12]+0.040*[#  13]+0.040*[#  14]+0.040*[#  15]
          +0.040*[#  16]
    |psi|^2 = 0.804
==== e(  13) =    15.85148 eV ==== 
     psi = 0.062*[#   3]+0.062*[#   4]+0.062*[#   5]+0.062*[#   6]+0.062*[#   7]
          +0.062*[#   8]+0.062*[#  11]+0.062*[#  12]+0.062*[#  13]+0.062*[#  14]
          +0.062*[#  15]+0.062*[#  16]+0.005*[#   1]+0.005*[#   2]+0.005*[#   9]
          +0.005*[#  10]
    |psi|^2 = 0.767
==== e(  14) =    15.85148 eV ==== 
     psi = 0.062*[#   3]+0.062*[#   4]+0.062*[#   5]+0.062*[#   6]+0.062*[#   7]
          +0.062*[#   8]+0.062*[#  11]+0.062*[#  12]+0.062*[#  13]+0.062*[#  14]
          +0.062*[#  15]+0.062*[#  16]+0.005*[#   1]+0.005*[#   2]+0.005*[#   9]
          +0.005*[#  10]
    |psi|^2 = 0.767
==== e(  15) =    15.85148 eV ==== 
     psi = 0.062*[#   3]+0.062*[#   4]+0.062*[#   5]+0.062*[#   6]+0.062*[#   7]
          +0.062*[#   8]+0.062*[#  11]+0.062*[#  12]+0.062*[#  13]+0.062*[#  14]
          +0.062*[#  15]+0.062*[#  16]+0.005*[#   1]+0.005*[#   2]+0.005*[#   9]
          +0.005*[#  10]
    |psi|^2 = 0.767
==== e(  16) =    15.85148 eV ==== 
     psi = 0.062*[#   3]+0.062*[#   4]+0.062*[#   5]+0.062*[#   6]+0.062*[#   7]
          +0.062*[#   8]+0.062*[#  11]+0.062*[#  12]+0.062*[#  13]+0.062*[#  14]
          +0.062*[#  15]+0.062*[#  16]+0.005*[#   1]+0.005*[#   2]+0.005*[#   9]
          +0.005*[#  10]
    |psi|^2 = 0.767

 k =   0.0883883476  0.7071067812  0.0000000000
==== e(   1) =    -1.48113 eV ==== 
     psi = 0.137*[#   1]+0.137*[#   2]+0.137*[#   9]+0.137*[#  10]+0.037*[#   3]
          +0.037*[#   4]+0.037*[#   5]+0.037*[#   6]+0.037*[#   7]+0.037*[#   8]
          +0.037*[#  11]+0.037*[#  12]+0.037*[#  13]+0.037*[#  14]+0.037*[#  15]
          +0.037*[#  16]
    |psi|^2 = 0.996
==== e(   2) =    -1.48113 eV ==== 
     psi = 0.137*[#   1]+0.137*[#   2]+0.137*[#   9]+0.137*[#  10]+0.037*[#   3]
          +0.037*[#   4]+0.037*[#   5]+0.037*[#   6]+0.037*[#   7]+0.037*[#   8]
          +0.037*[#  11]+0.037*[#  12]+0.037*[#  13]+0.037*[#  14]+0.037*[#  15]
          +0.037*[#  16]
    |psi|^2 = 0.996
==== e(   3) =    -1.48113 eV ==== 
     psi = 0.137*[#   1]+0.137*[#   2]+0.137*[#   9]+0.137*[#  10]+0.037*[#   3]
          +0.037*[#   4]+0.037*[#   5]+0.037*[#   6]+0.037*[#   7]+0.037*[#   8]
          +0.037*[#  11]+0.037*[#  12]+0.037*[#  13]+0.037*[#  14]+0.037*[#  15]
          +0.037*[#  16]
    |psi|^2 = 0.996
==== e(   4) =    -1.48113 eV ==== 
     psi = 0.137*[#   1]+0.137*[#   2]+0.137*[#   9]+0.137*[#  10]+0.037*[#   3]
          +0.037*[#   4]+0.037*[#   5]+0.037*[#   6]+0.037*[#   7]+0.037*[#   8]
          +0.037*[#  11]+0.037*[#  12]+0.037*[#  13]+0.037*[#  14]+0.037*[#  15]
          +0.037*[#  16]
    |psi|^2 = 0.996
==== e(   5) =     3.07767 eV ==== 
     psi = 0.082*[#   3]+0.082*[#   4]+0.082*[#   5]+0.082*[#   6]+0.082*[#   7]
          +0.082*[#   8]+0.082*[#  11]+0.082*[#  12]+0.082*[#  13]+0.082*[#  14]
          +0.082*[#  15]+0.082*[#  16]+0.003*[#   1]+0.003*[#   2]+0.003*[#   9]
          +0.003*[#  10]
    |psi|^2 = 0.995
==== e(   6) =     3.07767 eV ==== 
     psi = 0.082*[#   3]+0.082*[#   4]+0.082*[#   5]+0.082*[#   6]+0.082*[#   7]
          +0.082*[#   8]+0.082*[#  11]+0.082*[#  12]+0.082*[#  13]+0.082*[#  14]
          +0.082*[#  15]+0.082*[#  16]+0.003*[#   1]+0.003*[#   2]+0.003*[#   9]
          +0.003*[#  10]
    |psi|^2 = 0.995
==== e(   7) =     3.07767 eV ==== 
     psi = 0.082*[#   3]+0.082*[#   4]+0.082*[#   5]+0.082*[#   6]+0.082*[#   7]
          +0.082*[#   8]+0.082*[#  11]+0.082*[#  12]+0.082*[#  13]+0.082*[#  14]
          +0.082*[#  15]+0.082*[#  16]+0.003*[#   1]+0.003*[#   2]+0.003*[#   9]
          +0.003*[#  10]
    |psi|^2 = 0.995
==== e(   8) =     3.07767 eV ==== 
     psi = 0.082*[#   3]+0.082*[#   4]+0.082*[#   5]+0.082*[#   6]+0.082*[#   7]
          +0.082*[#   8]+0.082*[#  11]+0.082*[#  12]+0.082*[#  13]+0.082*[#  14]
          +0.082*[#  15]+0.082*[#  16]+0.003*[#   1]+0.003*[#   2]+0.003*[#   9]
          +0.003*[#  10]
    |psi|^2 = 0.995
==== e(   9) =     6.91084 eV ==== 
     psi = 0.080*[#   1]+0.080*[#   2]+0.080*[#   9]+0.080*[#  10]+0.040*[#   3]
          +0.040*[#   4]+0.040*[#   5]+0.040*[#   6]+0.040*[#   7]+0.040*[#   8]
          +0.040*[#  11]+0.040*[#  12]+0.040*[#  13]+0.040*[#  14]+0.040*[#  15]
          +0.040*[#  16]
    |psi|^2 = 0.799
==== e(  10) =     6.91084 eV ==== 
     psi = 0.080*[#   1]+0.080*[#   2]+0.080*[#   9]+0.080*[#  10]+0.040*[#   3]
          +0.040*[#   4]+0.040*[#   5]+0.040*[#   6]+0.040*[#   7]+0.040*[#   8]
          +0.040*[#  11]+0.040*[#  12]+0.040*[#  13]+0.040*[#  14]+0.040*[#  15]
          +0.040*[#  16]
    |psi|^2 = 0.799
==== e(  11) =     6.91084 eV ==== 
     psi = 0.080*[#   1]+0.080*[#   2]+0.080*[#   9]+0.080*[#  10]+0.040*[#   3]
          +0.040*[#   4]+0.040*[#   5]+0.040*[#   6]+0.040*[#   7]+0.040*[#   8]
          +0.040*[#  11]+0.040*[#  12]+0.040*[#  13]+0.040*[#  14]+0.040*[#  15]
          +0.040*[#  16]
    |psi|^2 = 0.799
==== e(  12) =     6.91084 eV ==== 
     psi = 0.080*[#   1]+0.080*[#   2]+0.080*[#   9]+0.080*[#  10]+0.040*[#   3]
          +0.040*[#   4]+0.040*[#   5]+0.040*[#   6]+0.040*[#   7]+0.040*[#   8]
          +0.040*[#  11]+0.040*[#  12]+0.040*[#  13]+0.040*[#  14]+0.040*[#  15]
          +0.040*[#  16]
    |psi|^2 = 0.799
==== e(  13) =    15.59607 eV ==== 
     psi = 0.055*[#   3]+0.055*[#   4]+0.055*[#   5]+0.055*[#   6]+0.055*[#   7]
          +0.055*[#   8]+0.055*[#  11]+0.055*[#  12]+0.055*[#  13]+0.055*[#  14]
          +0.055*[#  15]+0.055*[#  16]+0.008*[#   1]+0.008*[#   2]+0.008*[#   9]
          +0.008*[#  10]
    |psi|^2 = 0.696
==== e(  14) =    15.59607 eV ==== 
     psi = 0.055*[#   3]+0.055*[#   4]+0.055*[#   5]+0.055*[#   6]+0.055*[#   7]
          +0.055*[#   8]+0.055*[#  11]+0.055*[#  12]+0.055*[#  13]+0.055*[#  14]
          +0.055*[#  15]+0.055*[#  16]+0.008*[#   1]+0.008*[#   2]+0.008*[#   9]
          +0.008*[#  10]
    |psi|^2 = 0.696
==== e(  15) =    15.59607 eV ==== 
     psi = 0.055*[#   3]+0.055*[#   4]+0.055*[#   5]+0.055*[#   6]+0.055*[#   7]
          +0.055*[#   8]+0.055*[#  11]+0.055*[#  12]+0.055*[#  13]+0.055*[#  14]
          +0.055*[#  15]+0.055*[#  16]+0.008*[#   1]+0.008*[#   2]+0.008*[#   9]
          +0.008*[#  10]
    |psi|^2 = 0.696
==== e(  16) =    15.59607 eV ==== 
     psi = 0.055*[#   3]+0.055*[#   4]+0.055*[#   5]+0.055*[#   6]+0.055*[#   7]
          +0.055*[#   8]+0.055*[#  11]+0.055*[#  12]+0.055*[#  13]+0.055*[#  14]
          +0.055*[#  15]+0.055*[#  16]+0.008*[#   1]+0.008*[#   2]+0.008*[#   9]
          +0.008*[#  10]
    |psi|^2 = 0.696

 k =   0.1060660172  0.7071067812  0.0000000000
==== e(   1) =    -1.47002 eV ==== 
     psi = 0.137*[#   1]+0.137*[#   2]+0.137*[#   9]+0.137*[#  10]+0.037*[#   3]
          +0.037*[#   4]+0.037*[#   5]+0.037*[#   6]+0.037*[#   7]+0.037*[#   8]
          +0.037*[#  11]+0.037*[#  12]+0.037*[#  13]+0.037*[#  14]+0.037*[#  15]
          +0.037*[#  16]
    |psi|^2 = 0.996
==== e(   2) =    -1.47002 eV ==== 
     psi = 0.137*[#   1]+0.137*[#   2]+0.137*[#   9]+0.137*[#  10]+0.037*[#   3]
          +0.037*[#   4]+0.037*[#   5]+0.037*[#   6]+0.037*[#   7]+0.037*[#   8]
          +0.037*[#  11]+0.037*[#  12]+0.037*[#  13]+0.037*[#  14]+0.037*[#  15]
          +0.037*[#  16]
    |psi|^2 = 0.996
==== e(   3) =    -1.47002 eV ==== 
     psi = 0.137*[#   1]+0.137*[#   2]+0.137*[#   9]+0.137*[#  10]+0.037*[#   3]
          +0.037*[#   4]+0.037*[#   5]+0.037*[#   6]+0.037*[#   7]+0.037*[#   8]
          +0.037*[#  11]+0.037*[#  12]+0.037*[#  13]+0.037*[#  14]+0.037*[#  15]
          +0.037*[#  16]
    |psi|^2 = 0.996
==== e(   4) =    -1.47002 eV ==== 
     psi = 0.137*[#   1]+0.137*[#   2]+0.137*[#   9]+0.137*[#  10]+0.037*[#   3]
          +0.037*[#   4]+0.037*[#   5]+0.037*[#   6]+0.037*[#   7]+0.037*[#   8]
          +0.037*[#  11]+0.037*[#  12]+0.037*[#  13]+0.037*[#  14]+0.037*[#  15]
          +0.037*[#  16]
    |psi|^2 = 0.996
==== e(   5) =     2.99598 eV ==== 
     psi = 0.081*[#   3]+0.081*[#   4]+0.081*[#   5]+0.081*[#   6]+0.081*[#   7]
          +0.081*[#   8]+0.081*[#  11]+0.081*[#  12]+0.081*[#  13]+0.081*[#  14]
          +0.081*[#  15]+0.081*[#  16]+0.004*[#   1]+0.004*[#   2]+0.004*[#   9]
          +0.004*[#  10]
    |psi|^2 = 0.995
==== e(   6) =     2.99598 eV ==== 
     psi = 0.081*[#   3]+0.081*[#   4]+0.081*[#   5]+0.081*[#   6]+0.081*[#   7]
          +0.081*[#   8]+0.081*[#  11]+0.081*[#  12]+0.081*[#  13]+0.081*[#  14]
          +0.081*[#  15]+0.081*[#  16]+0.004*[#   1]+0.004*[#   2]+0.004*[#   9]
          +0.004*[#  10]
    |psi|^2 = 0.995
==== e(   7) =     2.99598 eV ==== 
     psi = 0.081*[#   3]+0.081*[#   4]+0.081*[#   5]+0.081*[#   6]+0.081*[#   7]
          +0.081*[#   8]+0.081*[#  11]+0.081*[#  12]+0.081*[#  13]+0.081*[#  14]
          +0.081*[#  15]+0.081*[#  16]+0.004*[#   1]+0.004*[#   2]+0.004*[#   9]
          +0.004*[#  10]
    |psi|^2 = 0.995
==== e(   8) =     2.99598 eV ==== 
     psi = 0.081*[#   3]+0.081*[#   4]+0.081*[#   5]+0.081*[#   6]+0.081*[#   7]
          +0.081*[#   8]+0.081*[#  11]+0.081*[#  12]+0.081*[#  13]+0.081*[#  14]
          +0.081*[#  15]+0.081*[#  16]+0.004*[#   1]+0.004*[#   2]+0.004*[#   9]
          +0.004*[#  10]
    |psi|^2 = 0.995
==== e(   9) =     7.06872 eV ==== 
     psi = 0.077*[#   1]+0.077*[#   2]+0.077*[#   9]+0.077*[#  10]+0.040*[#   3]
          +0.040*[#   4]+0.040*[#   5]+0.040*[#   6]+0.040*[#   7]+0.040*[#   8]
          +0.040*[#  11]+0.040*[#  12]+0.040*[#  13]+0.040*[#  14]+0.040*[#  15]
          +0.040*[#  16]
    |psi|^2 = 0.793
==== e(  10) =     7.06872 eV ==== 
     psi = 0.077*[#   1]+0.077*[#   2]+0.077*[#   9]+0.077*[#  10]+0.040*[#   3]
          +0.040*[#   4]+0.040*[#   5]+0.040*[#   6]+0.040*[#   7]+0.040*[#   8]
          +0.040*[#  11]+0.040*[#  12]+0.040*[#  13]+0.040*[#  14]+0.040*[#  15]
          +0.040*[#  16]
    |psi|^2 = 0.793
==== e(  11) =     7.06872 eV ==== 
     psi = 0.077*[#   1]+0.077*[#   2]+0.077*[#   9]+0.077*[#  10]+0.040*[#   3]
          +0.040*[#   4]+0.040*[#   5]+0.040*[#   6]+0.040*[#   7]+0.040*[#   8]
          +0.040*[#  11]+0.040*[#  12]+0.040*[#  13]+0.040*[#  14]+0.040*[#  15]
          +0.040*[#  16]
    |psi|^2 = 0.793
==== e(  12) =     7.06872 eV ==== 
     psi = 0.077*[#   1]+0.077*[#   2]+0.077*[#   9]+0.077*[#  10]+0.040*[#   3]
          +0.040*[#   4]+0.040*[#   5]+0.040*[#   6]+0.040*[#   7]+0.040*[#   8]
          +0.040*[#  11]+0.040*[#  12]+0.040*[#  13]+0.040*[#  14]+0.040*[#  15]
          +0.040*[#  16]
    |psi|^2 = 0.793
==== e(  13) =    15.30533 eV ==== 
     psi = 0.050*[#   3]+0.050*[#   4]+0.050*[#   5]+0.050*[#   6]+0.050*[#   7]
          +0.050*[#   8]+0.050*[#  11]+0.050*[#  12]+0.050*[#  13]+0.050*[#  14]
          +0.050*[#  15]+0.050*[#  16]+0.010*[#   1]+0.010*[#   2]+0.010*[#   9]
          +0.010*[#  10]
    |psi|^2 = 0.642
==== e(  14) =    15.30533 eV ==== 
     psi = 0.050*[#   3]+0.050*[#   4]+0.050*[#   5]+0.050*[#   6]+0.050*[#   7]
          +0.050*[#   8]+0.050*[#  11]+0.050*[#  12]+0.050*[#  13]+0.050*[#  14]
          +0.050*[#  15]+0.050*[#  16]+0.010*[#   1]+0.010*[#   2]+0.010*[#   9]
          +0.010*[#  10]
    |psi|^2 = 0.642
==== e(  15) =    15.30533 eV ==== 
     psi = 0.050*[#   3]+0.050*[#   4]+0.050*[#   5]+0.050*[#   6]+0.050*[#   7]
          +0.050*[#   8]+0.050*[#  11]+0.050*[#  12]+0.050*[#  13]+0.050*[#  14]
          +0.050*[#  15]+0.050*[#  16]+0.010*[#   1]+0.010*[#   2]+0.010*[#   9]
          +0.010*[#  10]
    |psi|^2 = 0.642
==== e(  16) =    15.30533 eV ==== 
     psi = 0.050*[#   3]+0.050*[#   4]+0.050*[#   5]+0.050*[#   6]+0.050*[#   7]
          +0.050*[#   8]+0.050*[#  11]+0.050*[#  12]+0.050*[#  13]+0.050*[#  14]
          +0.050*[#  15]+0.050*[#  16]+0.010*[#   1]+0.010*[#   2]+0.010*[#   9]
          +0.010*[#  10]
    |psi|^2 = 0.642

 k =   0.1237436867  0.7071067812 -0.0000000000
==== e(   1) =    -1.45615 eV ==== 
     psi = 0.138*[#   1]+0.138*[#   2]+0.138*[#   9]+0.138*[#  10]+0.037*[#   3]
          +0.037*[#   4]+0.037*[#   5]+0.037*[#   6]+0.037*[#   7]+0.037*[#   8]
          +0.037*[#  11]+0.037*[#  12]+0.037*[#  13]+0.037*[#  14]+0.037*[#  15]
          +0.037*[#  16]
    |psi|^2 = 0.996
==== e(   2) =    -1.45615 eV ==== 
     psi = 0.138*[#   1]+0.138*[#   2]+0.138*[#   9]+0.138*[#  10]+0.037*[#   3]
          +0.037*[#   4]+0.037*[#   5]+0.037*[#   6]+0.037*[#   7]+0.037*[#   8]
          +0.037*[#  11]+0.037*[#  12]+0.037*[#  13]+0.037*[#  14]+0.037*[#  15]
          +0.037*[#  16]
    |psi|^2 = 0.996
==== e(   3) =    -1.45615 eV ==== 
     psi = 0.138*[#   1]+0.138*[#   2]+0.138*[#   9]+0.138*[#  10]+0.037*[#   3]
          +0.037*[#   4]+0.037*[#   5]+0.037*[#   6]+0.037*[#   7]+0.037*[#   8]
          +0.037*[#  11]+0.037*[#  12]+0.037*[#  13]+0.037*[#  14]+0.037*[#  15]
          +0.037*[#  16]
    |psi|^2 = 0.996
==== e(   4) =    -1.45615 eV ==== 
     psi = 0.138*[#   1]+0.138*[#   2]+0.138*[#   9]+0.138*[#  10]+0.037*[#   3]
          +0.037*[#   4]+0.037*[#   5]+0.037*[#   6]+0.037*[#   7]+0.037*[#   8]
          +0.037*[#  11]+0.037*[#  12]+0.037*[#  13]+0.037*[#  14]+0.037*[#  15]
          +0.037*[#  16]
    |psi|^2 = 0.996
==== e(   5) =     2.90983 eV ==== 
     psi = 0.081*[#   3]+0.081*[#   4]+0.081*[#   5]+0.081*[#   6]+0.081*[#   7]
          +0.081*[#   8]+0.081*[#  11]+0.081*[#  12]+0.081*[#  13]+0.081*[#  14]
          +0.081*[#  15]+0.081*[#  16]+0.005*[#   1]+0.005*[#   2]+0.005*[#   9]
          +0.005*[#  10]
    |psi|^2 = 0.994
==== e(   6) =     2.90983 eV ==== 
     psi = 0.081*[#   3]+0.081*[#   4]+0.081*[#   5]+0.081*[#   6]+0.081*[#   7]
          +0.081*[#   8]+0.081*[#  11]+0.081*[#  12]+0.081*[#  13]+0.081*[#  14]
          +0.081*[#  15]+0.081*[#  16]+0.005*[#   1]+0.005*[#   2]+0.005*[#   9]
          +0.005*[#  10]
    |psi|^2 = 0.994
==== e(   7) =     2.90983 eV ==== 
     psi = 0.081*[#   3]+0.081*[#   4]+0.081*[#   5]+0.081*[#   6]+0.081*[#   7]
          +0.081*[#   8]+0.081*[#  11]+0.081*[#  12]+0.081*[#  13]+0.081*[#  14]
          +0.081*[#  15]+0.081*[#  16]+0.005*[#   1]+0.005*[#   2]+0.005*[#   9]
          +0.005*[#  10]
    |psi|^2 = 0.994
==== e(   8) =     2.90983 eV ==== 
     psi = 0.081*[#   3]+0.081*[#   4]+0.081*[#   5]+0.081*[#   6]+0.081*[#   7]
          +0.081*[#   8]+0.081*[#  11]+0.081*[#  12]+0.081*[#  13]+0.081*[#  14]
          +0.081*[#  15]+0.081*[#  16]+0.005*[#   1]+0.005*[#   2]+0.005*[#   9]
          +0.005*[#  10]
    |psi|^2 = 0.994
==== e(   9) =     7.25104 eV ==== 
     psi = 0.074*[#   1]+0.074*[#   2]+0.074*[#   9]+0.074*[#  10]+0.041*[#   3]
          +0.041*[#   4]+0.041*[#   5]+0.041*[#   6]+0.041*[#   7]+0.041*[#   8]
          +0.041*[#  11]+0.041*[#  12]+0.041*[#  13]+0.041*[#  14]+0.041*[#  15]
          +0.041*[#  16]
    |psi|^2 = 0.785
==== e(  10) =     7.25104 eV ==== 
     psi = 0.074*[#   1]+0.074*[#   2]+0.074*[#   9]+0.074*[#  10]+0.041*[#   3]
          +0.041*[#   4]+0.041*[#   5]+0.041*[#   6]+0.041*[#   7]+0.041*[#   8]
          +0.041*[#  11]+0.041*[#  12]+0.041*[#  13]+0.041*[#  14]+0.041*[#  15]
          +0.041*[#  16]
    |psi|^2 = 0.785
==== e(  11) =     7.25104 eV ==== 
     psi = 0.074*[#   1]+0.074*[#   2]+0.074*[#   9]+0.074*[#  10]+0.041*[#   3]
          +0.041*[#   4]+0.041*[#   5]+0.041*[#   6]+0.041*[#   7]+0.041*[#   8]
          +0.041*[#  11]+0.041*[#  12]+0.041*[#  13]+0.041*[#  14]+0.041*[#  15]
          +0.041*[#  16]
    |psi|^2 = 0.785
==== e(  12) =     7.25104 eV ==== 
     psi = 0.074*[#   1]+0.074*[#   2]+0.074*[#   9]+0.074*[#  10]+0.041*[#   3]
          +0.041*[#   4]+0.041*[#   5]+0.041*[#   6]+0.041*[#   7]+0.041*[#   8]
          +0.041*[#  11]+0.041*[#  12]+0.041*[#  13]+0.041*[#  14]+0.041*[#  15]
          +0.041*[#  16]
    |psi|^2 = 0.785
==== e(  13) =    15.00406 eV ==== 
     psi = 0.047*[#   3]+0.047*[#   4]+0.047*[#   5]+0.047*[#   6]+0.047*[#   7]
          +0.047*[#   8]+0.047*[#  11]+0.047*[#  12]+0.047*[#  13]+0.047*[#  14]
          +0.047*[#  15]+0.047*[#  16]+0.013*[#   1]+0.013*[#   2]+0.013*[#   9]
          +0.013*[#  10]
    |psi|^2 = 0.611
==== e(  14) =    15.00406 eV ==== 
     psi = 0.047*[#   3]+0.047*[#   4]+0.047*[#   5]+0.047*[#   6]+0.047*[#   7]
          +0.047*[#   8]+0.047*[#  11]+0.047*[#  12]+0.047*[#  13]+0.047*[#  14]
          +0.047*[#  15]+0.047*[#  16]+0.013*[#   1]+0.013*[#   2]+0.013*[#   9]
          +0.013*[#  10]
    |psi|^2 = 0.611
==== e(  15) =    15.00406 eV ==== 
     psi = 0.047*[#   3]+0.047*[#   4]+0.047*[#   5]+0.047*[#   6]+0.047*[#   7]
          +0.047*[#   8]+0.047*[#  11]+0.047*[#  12]+0.047*[#  13]+0.047*[#  14]
          +0.047*[#  15]+0.047*[#  16]+0.013*[#   1]+0.013*[#   2]+0.013*[#   9]
          +0.013*[#  10]
    |psi|^2 = 0.611
==== e(  16) =    15.00406 eV ==== 
     psi = 0.047*[#   3]+0.047*[#   4]+0.047*[#   5]+0.047*[#   6]+0.047*[#   7]
          +0.047*[#   8]+0.047*[#  11]+0.047*[#  12]+0.047*[#  13]+0.047*[#  14]
          +0.047*[#  15]+0.047*[#  16]+0.013*[#   1]+0.013*[#   2]+0.013*[#   9]
          +0.013*[#  10]
    |psi|^2 = 0.611

 k =   0.1414213562  0.7071067812  0.0000000000
==== e(   1) =    -1.44222 eV ==== 
     psi = 0.139*[#   1]+0.139*[#   2]+0.139*[#   9]+0.139*[#  10]+0.037*[#   3]
          +0.037*[#   4]+0.037*[#   5]+0.037*[#   6]+0.037*[#   7]+0.037*[#   8]
          +0.037*[#  11]+0.037*[#  12]+0.037*[#  13]+0.037*[#  14]+0.037*[#  15]
          +0.037*[#  16]
    |psi|^2 = 0.996
==== e(   2) =    -1.44222 eV ==== 
     psi = 0.139*[#   1]+0.139*[#   2]+0.139*[#   9]+0.139*[#  10]+0.037*[#   3]
          +0.037*[#   4]+0.037*[#   5]+0.037*[#   6]+0.037*[#   7]+0.037*[#   8]
          +0.037*[#  11]+0.037*[#  12]+0.037*[#  13]+0.037*[#  14]+0.037*[#  15]
          +0.037*[#  16]
    |psi|^2 = 0.996
==== e(   3) =    -1.44222 eV ==== 
     psi = 0.139*[#   1]+0.139*[#   2]+0.139*[#   9]+0.139*[#  10]+0.037*[#   3]
          +0.037*[#   4]+0.037*[#   5]+0.037*[#   6]+0.037*[#   7]+0.037*[#   8]
          +0.037*[#  11]+0.037*[#  12]+0.037*[#  13]+0.037*[#  14]+0.037*[#  15]
          +0.037*[#  16]
    |psi|^2 = 0.996
==== e(   4) =    -1.44222 eV ==== 
     psi = 0.139*[#   1]+0.139*[#   2]+0.139*[#   9]+0.139*[#  10]+0.037*[#   3]
          +0.037*[#   4]+0.037*[#   5]+0.037*[#   6]+0.037*[#   7]+0.037*[#   8]
          +0.037*[#  11]+0.037*[#  12]+0.037*[#  13]+0.037*[#  14]+0.037*[#  15]
          +0.037*[#  16]
    |psi|^2 = 0.996
==== e(   5) =     2.82057 eV ==== 
     psi = 0.081*[#   3]+0.081*[#   4]+0.081*[#   5]+0.081*[#   6]+0.081*[#   7]
          +0.081*[#   8]+0.081*[#  11]+0.081*[#  12]+0.081*[#  13]+0.081*[#  14]
          +0.081*[#  15]+0.081*[#  16]+0.005*[#   1]+0.005*[#   2]+0.005*[#   9]
          +0.005*[#  10]
    |psi|^2 = 0.994
==== e(   6) =     2.82057 eV ==== 
     psi = 0.081*[#   3]+0.081*[#   4]+0.081*[#   5]+0.081*[#   6]+0.081*[#   7]
          +0.081*[#   8]+0.081*[#  11]+0.081*[#  12]+0.081*[#  13]+0.081*[#  14]
          +0.081*[#  15]+0.081*[#  16]+0.005*[#   1]+0.005*[#   2]+0.005*[#   9]
          +0.005*[#  10]
    |psi|^2 = 0.994
==== e(   7) =     2.82057 eV ==== 
     psi = 0.081*[#   3]+0.081*[#   4]+0.081*[#   5]+0.081*[#   6]+0.081*[#   7]
          +0.081*[#   8]+0.081*[#  11]+0.081*[#  12]+0.081*[#  13]+0.081*[#  14]
          +0.081*[#  15]+0.081*[#  16]+0.005*[#   1]+0.005*[#   2]+0.005*[#   9]
          +0.005*[#  10]
    |psi|^2 = 0.994
==== e(   8) =     2.82057 eV ==== 
     psi = 0.081*[#   3]+0.081*[#   4]+0.081*[#   5]+0.081*[#   6]+0.081*[#   7]
          +0.081*[#   8]+0.081*[#  11]+0.081*[#  12]+0.081*[#  13]+0.081*[#  14]
          +0.081*[#  15]+0.081*[#  16]+0.005*[#   1]+0.005*[#   2]+0.005*[#   9]
          +0.005*[#  10]
    |psi|^2 = 0.994
==== e(   9) =     7.44476 eV ==== 
     psi = 0.071*[#   1]+0.071*[#   2]+0.071*[#   9]+0.071*[#  10]+0.041*[#   3]
          +0.041*[#   4]+0.041*[#   5]+0.041*[#   6]+0.041*[#   7]+0.041*[#   8]
          +0.041*[#  11]+0.041*[#  12]+0.041*[#  13]+0.041*[#  14]+0.041*[#  15]
          +0.041*[#  16]
    |psi|^2 = 0.776
==== e(  10) =     7.44476 eV ==== 
     psi = 0.071*[#   1]+0.071*[#   2]+0.071*[#   9]+0.071*[#  10]+0.041*[#   3]
          +0.041*[#   4]+0.041*[#   5]+0.041*[#   6]+0.041*[#   7]+0.041*[#   8]
          +0.041*[#  11]+0.041*[#  12]+0.041*[#  13]+0.041*[#  14]+0.041*[#  15]
          +0.041*[#  16]
    |psi|^2 = 0.776
==== e(  11) =     7.44476 eV ==== 
     psi = 0.071*[#   1]+0.071*[#   2]+0.071*[#   9]+0.071*[#  10]+0.041*[#   3]
          +0.041*[#   4]+0.041*[#   5]+0.041*[#   6]+0.041*[#   7]+0.041*[#   8]
          +0.041*[#  11]+0.041*[#  12]+0.041*[#  13]+0.041*[#  14]+0.041*[#  15]
          +0.041*[#  16]
    |psi|^2 = 0.776
==== e(  12) =     7.44476 eV ==== 
     psi = 0.071*[#   1]+0.071*[#   2]+0.071*[#   9]+0.071*[#  10]+0.041*[#   3]
          +0.041*[#   4]+0.041*[#   5]+0.041*[#   6]+0.041*[#   7]+0.041*[#   8]
          +0.041*[#  11]+0.041*[#  12]+0.041*[#  13]+0.041*[#  14]+0.041*[#  15]
          +0.041*[#  16]
    |psi|^2 = 0.776
==== e(  13) =    14.67922 eV ==== 
     psi = 0.044*[#   3]+0.044*[#   4]+0.044*[#   5]+0.044*[#   6]+0.044*[#   7]
          +0.044*[#   8]+0.044*[#  11]+0.044*[#  12]+0.044*[#  13]+0.044*[#  14]
          +0.044*[#  15]+0.044*[#  16]+0.015*[#   1]+0.015*[#   2]+0.015*[#   9]
          +0.015*[#  10]
    |psi|^2 = 0.589
==== e(  14) =    14.67922 eV ==== 
     psi = 0.044*[#   3]+0.044*[#   4]+0.044*[#   5]+0.044*[#   6]+0.044*[#   7]
          +0.044*[#   8]+0.044*[#  11]+0.044*[#  12]+0.044*[#  13]+0.044*[#  14]
          +0.044*[#  15]+0.044*[#  16]+0.015*[#   1]+0.015*[#   2]+0.015*[#   9]
          +0.015*[#  10]
    |psi|^2 = 0.589
==== e(  15) =    14.67922 eV ==== 
     psi = 0.044*[#   3]+0.044*[#   4]+0.044*[#   5]+0.044*[#   6]+0.044*[#   7]
          +0.044*[#   8]+0.044*[#  11]+0.044*[#  12]+0.044*[#  13]+0.044*[#  14]
          +0.044*[#  15]+0.044*[#  16]+0.015*[#   1]+0.015*[#   2]+0.015*[#   9]
          +0.015*[#  10]
    |psi|^2 = 0.589
==== e(  16) =    14.67922 eV ==== 
     psi = 0.044*[#   3]+0.044*[#   4]+0.044*[#   5]+0.044*[#   6]+0.044*[#   7]
          +0.044*[#   8]+0.044*[#  11]+0.044*[#  12]+0.044*[#  13]+0.044*[#  14]
          +0.044*[#  15]+0.044*[#  16]+0.015*[#   1]+0.015*[#   2]+0.015*[#   9]
          +0.015*[#  10]
    |psi|^2 = 0.589

 k =   0.1590990258  0.7071067812  0.0000000000
==== e(   1) =    -1.42729 eV ==== 
     psi = 0.140*[#   1]+0.140*[#   2]+0.140*[#   9]+0.140*[#  10]+0.036*[#   3]
          +0.036*[#   4]+0.036*[#   5]+0.036*[#   6]+0.036*[#   7]+0.036*[#   8]
          +0.036*[#  11]+0.036*[#  12]+0.036*[#  13]+0.036*[#  14]+0.036*[#  15]
          +0.036*[#  16]
    |psi|^2 = 0.996
==== e(   2) =    -1.42729 eV ==== 
     psi = 0.140*[#   1]+0.140*[#   2]+0.140*[#   9]+0.140*[#  10]+0.036*[#   3]
          +0.036*[#   4]+0.036*[#   5]+0.036*[#   6]+0.036*[#   7]+0.036*[#   8]
          +0.036*[#  11]+0.036*[#  12]+0.036*[#  13]+0.036*[#  14]+0.036*[#  15]
          +0.036*[#  16]
    |psi|^2 = 0.996
==== e(   3) =    -1.42729 eV ==== 
     psi = 0.140*[#   1]+0.140*[#   2]+0.140*[#   9]+0.140*[#  10]+0.036*[#   3]
          +0.036*[#   4]+0.036*[#   5]+0.036*[#   6]+0.036*[#   7]+0.036*[#   8]
          +0.036*[#  11]+0.036*[#  12]+0.036*[#  13]+0.036*[#  14]+0.036*[#  15]
          +0.036*[#  16]
    |psi|^2 = 0.996
==== e(   4) =    -1.42729 eV ==== 
     psi = 0.140*[#   1]+0.140*[#   2]+0.140*[#   9]+0.140*[#  10]+0.036*[#   3]
          +0.036*[#   4]+0.036*[#   5]+0.036*[#   6]+0.036*[#   7]+0.036*[#   8]
          +0.036*[#  11]+0.036*[#  12]+0.036*[#  13]+0.036*[#  14]+0.036*[#  15]
          +0.036*[#  16]
    |psi|^2 = 0.996
==== e(   5) =     2.73120 eV ==== 
     psi = 0.081*[#   3]+0.081*[#   4]+0.081*[#   5]+0.081*[#   6]+0.081*[#   7]
          +0.081*[#   8]+0.081*[#  11]+0.081*[#  12]+0.081*[#  13]+0.081*[#  14]
          +0.081*[#  15]+0.081*[#  16]+0.005*[#   1]+0.005*[#   2]+0.005*[#   9]
          +0.005*[#  10]
    |psi|^2 = 0.994
==== e(   6) =     2.73120 eV ==== 
     psi = 0.081*[#   3]+0.081*[#   4]+0.081*[#   5]+0.081*[#   6]+0.081*[#   7]
          +0.081*[#   8]+0.081*[#  11]+0.081*[#  12]+0.081*[#  13]+0.081*[#  14]
          +0.081*[#  15]+0.081*[#  16]+0.005*[#   1]+0.005*[#   2]+0.005*[#   9]
          +0.005*[#  10]
    |psi|^2 = 0.994
==== e(   7) =     2.73120 eV ==== 
     psi = 0.081*[#   3]+0.081*[#   4]+0.081*[#   5]+0.081*[#   6]+0.081*[#   7]
          +0.081*[#   8]+0.081*[#  11]+0.081*[#  12]+0.081*[#  13]+0.081*[#  14]
          +0.081*[#  15]+0.081*[#  16]+0.005*[#   1]+0.005*[#   2]+0.005*[#   9]
          +0.005*[#  10]
    |psi|^2 = 0.994
==== e(   8) =     2.73120 eV ==== 
     psi = 0.081*[#   3]+0.081*[#   4]+0.081*[#   5]+0.081*[#   6]+0.081*[#   7]
          +0.081*[#   8]+0.081*[#  11]+0.081*[#  12]+0.081*[#  13]+0.081*[#  14]
          +0.081*[#  15]+0.081*[#  16]+0.005*[#   1]+0.005*[#   2]+0.005*[#   9]
          +0.005*[#  10]
    |psi|^2 = 0.994
==== e(   9) =     7.65299 eV ==== 
     psi = 0.067*[#   1]+0.067*[#   2]+0.067*[#   9]+0.067*[#  10]+0.041*[#   3]
          +0.041*[#   4]+0.041*[#   5]+0.041*[#   6]+0.041*[#   7]+0.041*[#   8]
          +0.041*[#  11]+0.041*[#  12]+0.041*[#  13]+0.041*[#  14]+0.041*[#  15]
          +0.041*[#  16]
    |psi|^2 = 0.765
==== e(  10) =     7.65299 eV ==== 
     psi = 0.067*[#   1]+0.067*[#   2]+0.067*[#   9]+0.067*[#  10]+0.041*[#   3]
          +0.041*[#   4]+0.041*[#   5]+0.041*[#   6]+0.041*[#   7]+0.041*[#   8]
          +0.041*[#  11]+0.041*[#  12]+0.041*[#  13]+0.041*[#  14]+0.041*[#  15]
          +0.041*[#  16]
    |psi|^2 = 0.765
==== e(  11) =     7.65299 eV ==== 
     psi = 0.067*[#   1]+0.067*[#   2]+0.067*[#   9]+0.067*[#  10]+0.041*[#   3]
          +0.041*[#   4]+0.041*[#   5]+0.041*[#   6]+0.041*[#   7]+0.041*[#   8]
          +0.041*[#  11]+0.041*[#  12]+0.041*[#  13]+0.041*[#  14]+0.041*[#  15]
          +0.041*[#  16]
    |psi|^2 = 0.765
==== e(  12) =     7.65299 eV ==== 
     psi = 0.067*[#   1]+0.067*[#   2]+0.067*[#   9]+0.067*[#  10]+0.041*[#   3]
          +0.041*[#   4]+0.041*[#   5]+0.041*[#   6]+0.041*[#   7]+0.041*[#   8]
          +0.041*[#  11]+0.041*[#  12]+0.041*[#  13]+0.041*[#  14]+0.041*[#  15]
          +0.041*[#  16]
    |psi|^2 = 0.765
==== e(  13) =    14.34744 eV ==== 
     psi = 0.042*[#   3]+0.042*[#   4]+0.042*[#   5]+0.042*[#   6]+0.042*[#   7]
          +0.042*[#   8]+0.042*[#  11]+0.042*[#  12]+0.042*[#  13]+0.042*[#  14]
          +0.042*[#  15]+0.042*[#  16]+0.018*[#   1]+0.018*[#   2]+0.018*[#   9]
          +0.018*[#  10]
    |psi|^2 = 0.578
==== e(  14) =    14.34744 eV ==== 
     psi = 0.042*[#   3]+0.042*[#   4]+0.042*[#   5]+0.042*[#   6]+0.042*[#   7]
          +0.042*[#   8]+0.042*[#  11]+0.042*[#  12]+0.042*[#  13]+0.042*[#  14]
          +0.042*[#  15]+0.042*[#  16]+0.018*[#   1]+0.018*[#   2]+0.018*[#   9]
          +0.018*[#  10]
    |psi|^2 = 0.578
==== e(  15) =    14.34744 eV ==== 
     psi = 0.042*[#   3]+0.042*[#   4]+0.042*[#   5]+0.042*[#   6]+0.042*[#   7]
          +0.042*[#   8]+0.042*[#  11]+0.042*[#  12]+0.042*[#  13]+0.042*[#  14]
          +0.042*[#  15]+0.042*[#  16]+0.018*[#   1]+0.018*[#   2]+0.018*[#   9]
          +0.018*[#  10]
    |psi|^2 = 0.579
==== e(  16) =    14.34744 eV ==== 
     psi = 0.042*[#   3]+0.042*[#   4]+0.042*[#   5]+0.042*[#   6]+0.042*[#   7]
          +0.042*[#   8]+0.042*[#  11]+0.042*[#  12]+0.042*[#  13]+0.042*[#  14]
          +0.042*[#  15]+0.042*[#  16]+0.018*[#   1]+0.018*[#   2]+0.018*[#   9]
          +0.018*[#  10]
    |psi|^2 = 0.579

 k =   0.1767766953  0.7071067812  0.0000000000
==== e(   1) =    -1.41091 eV ==== 
     psi = 0.140*[#   1]+0.140*[#   2]+0.140*[#   9]+0.140*[#  10]+0.036*[#   3]
          +0.036*[#   4]+0.036*[#   5]+0.036*[#   6]+0.036*[#   7]+0.036*[#   8]
          +0.036*[#  11]+0.036*[#  12]+0.036*[#  13]+0.036*[#  14]+0.036*[#  15]
          +0.036*[#  16]
    |psi|^2 = 0.996
==== e(   2) =    -1.41091 eV ==== 
     psi = 0.140*[#   1]+0.140*[#   2]+0.140*[#   9]+0.140*[#  10]+0.036*[#   3]
          +0.036*[#   4]+0.036*[#   5]+0.036*[#   6]+0.036*[#   7]+0.036*[#   8]
          +0.036*[#  11]+0.036*[#  12]+0.036*[#  13]+0.036*[#  14]+0.036*[#  15]
          +0.036*[#  16]
    |psi|^2 = 0.996
==== e(   3) =    -1.41091 eV ==== 
     psi = 0.140*[#   1]+0.140*[#   2]+0.140*[#   9]+0.140*[#  10]+0.036*[#   3]
          +0.036*[#   4]+0.036*[#   5]+0.036*[#   6]+0.036*[#   7]+0.036*[#   8]
          +0.036*[#  11]+0.036*[#  12]+0.036*[#  13]+0.036*[#  14]+0.036*[#  15]
          +0.036*[#  16]
    |psi|^2 = 0.996
==== e(   4) =    -1.41091 eV ==== 
     psi = 0.140*[#   1]+0.140*[#   2]+0.140*[#   9]+0.140*[#  10]+0.036*[#   3]
          +0.036*[#   4]+0.036*[#   5]+0.036*[#   6]+0.036*[#   7]+0.036*[#   8]
          +0.036*[#  11]+0.036*[#  12]+0.036*[#  13]+0.036*[#  14]+0.036*[#  15]
          +0.036*[#  16]
    |psi|^2 = 0.996
==== e(   5) =     2.64412 eV ==== 
     psi = 0.081*[#   3]+0.081*[#   4]+0.081*[#   5]+0.081*[#   6]+0.081*[#   7]
          +0.081*[#   8]+0.081*[#  11]+0.081*[#  12]+0.081*[#  13]+0.081*[#  14]
          +0.081*[#  15]+0.081*[#  16]+0.005*[#   1]+0.005*[#   2]+0.005*[#   9]
          +0.005*[#  10]
    |psi|^2 = 0.994
==== e(   6) =     2.64412 eV ==== 
     psi = 0.081*[#   3]+0.081*[#   4]+0.081*[#   5]+0.081*[#   6]+0.081*[#   7]
          +0.081*[#   8]+0.081*[#  11]+0.081*[#  12]+0.081*[#  13]+0.081*[#  14]
          +0.081*[#  15]+0.081*[#  16]+0.005*[#   1]+0.005*[#   2]+0.005*[#   9]
          +0.005*[#  10]
    |psi|^2 = 0.994
==== e(   7) =     2.64412 eV ==== 
     psi = 0.081*[#   3]+0.081*[#   4]+0.081*[#   5]+0.081*[#   6]+0.081*[#   7]
          +0.081*[#   8]+0.081*[#  11]+0.081*[#  12]+0.081*[#  13]+0.081*[#  14]
          +0.081*[#  15]+0.081*[#  16]+0.005*[#   1]+0.005*[#   2]+0.005*[#   9]
          +0.005*[#  10]
    |psi|^2 = 0.994
==== e(   8) =     2.64412 eV ==== 
     psi = 0.081*[#   3]+0.081*[#   4]+0.081*[#   5]+0.081*[#   6]+0.081*[#   7]
          +0.081*[#   8]+0.081*[#  11]+0.081*[#  12]+0.081*[#  13]+0.081*[#  14]
          +0.081*[#  15]+0.081*[#  16]+0.005*[#   1]+0.005*[#   2]+0.005*[#   9]
          +0.005*[#  10]
    |psi|^2 = 0.994
==== e(   9) =     7.87400 eV ==== 
     psi = 0.064*[#   1]+0.064*[#   2]+0.064*[#   9]+0.064*[#  10]+0.041*[#   3]
          +0.041*[#   4]+0.041*[#   5]+0.041*[#   6]+0.041*[#   7]+0.041*[#   8]
          +0.041*[#  11]+0.041*[#  12]+0.041*[#  13]+0.041*[#  14]+0.041*[#  15]
          +0.041*[#  16]
    |psi|^2 = 0.753
==== e(  10) =     7.87400 eV ==== 
     psi = 0.064*[#   1]+0.064*[#   2]+0.064*[#   9]+0.064*[#  10]+0.041*[#   3]
          +0.041*[#   4]+0.041*[#   5]+0.041*[#   6]+0.041*[#   7]+0.041*[#   8]
          +0.041*[#  11]+0.041*[#  12]+0.041*[#  13]+0.041*[#  14]+0.041*[#  15]
          +0.041*[#  16]
    |psi|^2 = 0.753
==== e(  11) =     7.87400 eV ==== 
     psi = 0.064*[#   1]+0.064*[#   2]+0.064*[#   9]+0.064*[#  10]+0.041*[#   3]
          +0.041*[#   4]+0.041*[#   5]+0.041*[#   6]+0.041*[#   7]+0.041*[#   8]
          +0.041*[#  11]+0.041*[#  12]+0.041*[#  13]+0.041*[#  14]+0.041*[#  15]
          +0.041*[#  16]
    |psi|^2 = 0.753
==== e(  12) =     7.87400 eV ==== 
     psi = 0.064*[#   1]+0.064*[#   2]+0.064*[#   9]+0.064*[#  10]+0.041*[#   3]
          +0.041*[#   4]+0.041*[#   5]+0.041*[#   6]+0.041*[#   7]+0.041*[#   8]
          +0.041*[#  11]+0.041*[#  12]+0.041*[#  13]+0.041*[#  14]+0.041*[#  15]
          +0.041*[#  16]
    |psi|^2 = 0.753
==== e(  13) =    14.01593 eV ==== 
     psi = 0.041*[#   3]+0.041*[#   4]+0.041*[#   5]+0.041*[#   6]+0.041*[#   7]
          +0.041*[#   8]+0.041*[#  11]+0.041*[#  12]+0.041*[#  13]+0.041*[#  14]
          +0.041*[#  15]+0.041*[#  16]+0.021*[#   1]+0.021*[#   2]+0.021*[#   9]
          +0.021*[#  10]
    |psi|^2 = 0.575
==== e(  14) =    14.01593 eV ==== 
     psi = 0.041*[#   3]+0.041*[#   4]+0.041*[#   5]+0.041*[#   6]+0.041*[#   7]
          +0.041*[#   8]+0.041*[#  11]+0.041*[#  12]+0.041*[#  13]+0.041*[#  14]
          +0.041*[#  15]+0.041*[#  16]+0.021*[#   1]+0.021*[#   2]+0.021*[#   9]
          +0.021*[#  10]
    |psi|^2 = 0.576
==== e(  15) =    14.01593 eV ==== 
     psi = 0.041*[#   3]+0.041*[#   4]+0.041*[#   5]+0.041*[#   6]+0.041*[#   7]
          +0.041*[#   8]+0.041*[#  11]+0.041*[#  12]+0.041*[#  13]+0.041*[#  14]
          +0.041*[#  15]+0.041*[#  16]+0.021*[#   1]+0.021*[#   2]+0.021*[#   9]
          +0.021*[#  10]
    |psi|^2 = 0.576
==== e(  16) =    14.01593 eV ==== 
     psi = 0.041*[#   3]+0.041*[#   4]+0.041*[#   5]+0.041*[#   6]+0.041*[#   7]
          +0.041*[#   8]+0.041*[#  11]+0.041*[#  12]+0.041*[#  13]+0.041*[#  14]
          +0.041*[#  15]+0.041*[#  16]+0.021*[#   1]+0.021*[#   2]+0.021*[#   9]
          +0.021*[#  10]
    |psi|^2 = 0.576

 k =   0.1944543648  0.7071067812  0.0000000000
==== e(   1) =    -1.39712 eV ==== 
     psi = 0.142*[#   1]+0.142*[#   2]+0.142*[#   9]+0.142*[#  10]+0.036*[#   3]
          +0.036*[#   4]+0.036*[#   5]+0.036*[#   6]+0.036*[#   7]+0.036*[#   8]
          +0.036*[#  11]+0.036*[#  12]+0.036*[#  13]+0.036*[#  14]+0.036*[#  15]
          +0.036*[#  16]
    |psi|^2 = 0.996
==== e(   2) =    -1.39712 eV ==== 
     psi = 0.142*[#   1]+0.142*[#   2]+0.142*[#   9]+0.142*[#  10]+0.036*[#   3]
          +0.036*[#   4]+0.036*[#   5]+0.036*[#   6]+0.036*[#   7]+0.036*[#   8]
          +0.036*[#  11]+0.036*[#  12]+0.036*[#  13]+0.036*[#  14]+0.036*[#  15]
          +0.036*[#  16]
    |psi|^2 = 0.996
==== e(   3) =    -1.39712 eV ==== 
     psi = 0.142*[#   1]+0.142*[#   2]+0.142*[#   9]+0.142*[#  10]+0.036*[#   3]
          +0.036*[#   4]+0.036*[#   5]+0.036*[#   6]+0.036*[#   7]+0.036*[#   8]
          +0.036*[#  11]+0.036*[#  12]+0.036*[#  13]+0.036*[#  14]+0.036*[#  15]
          +0.036*[#  16]
    |psi|^2 = 0.996
==== e(   4) =    -1.39712 eV ==== 
     psi = 0.142*[#   1]+0.142*[#   2]+0.142*[#   9]+0.142*[#  10]+0.036*[#   3]
          +0.036*[#   4]+0.036*[#   5]+0.036*[#   6]+0.036*[#   7]+0.036*[#   8]
          +0.036*[#  11]+0.036*[#  12]+0.036*[#  13]+0.036*[#  14]+0.036*[#  15]
          +0.036*[#  16]
    |psi|^2 = 0.996
==== e(   5) =     2.55967 eV ==== 
     psi = 0.081*[#   3]+0.081*[#   4]+0.081*[#   5]+0.081*[#   6]+0.081*[#   7]
          +0.081*[#   8]+0.081*[#  11]+0.081*[#  12]+0.081*[#  13]+0.081*[#  14]
          +0.081*[#  15]+0.081*[#  16]+0.004*[#   1]+0.004*[#   2]+0.004*[#   9]
          +0.004*[#  10]
    |psi|^2 = 0.994
==== e(   6) =     2.55967 eV ==== 
     psi = 0.081*[#   3]+0.081*[#   4]+0.081*[#   5]+0.081*[#   6]+0.081*[#   7]
          +0.081*[#   8]+0.081*[#  11]+0.081*[#  12]+0.081*[#  13]+0.081*[#  14]
          +0.081*[#  15]+0.081*[#  16]+0.004*[#   1]+0.004*[#   2]+0.004*[#   9]
          +0.004*[#  10]
    |psi|^2 = 0.994
==== e(   7) =     2.55967 eV ==== 
     psi = 0.081*[#   3]+0.081*[#   4]+0.081*[#   5]+0.081*[#   6]+0.081*[#   7]
          +0.081*[#   8]+0.081*[#  11]+0.081*[#  12]+0.081*[#  13]+0.081*[#  14]
          +0.081*[#  15]+0.081*[#  16]+0.004*[#   1]+0.004*[#   2]+0.004*[#   9]
          +0.004*[#  10]
    |psi|^2 = 0.994
==== e(   8) =     2.55967 eV ==== 
     psi = 0.081*[#   3]+0.081*[#   4]+0.081*[#   5]+0.081*[#   6]+0.081*[#   7]
          +0.081*[#   8]+0.081*[#  11]+0.081*[#  12]+0.081*[#  13]+0.081*[#  14]
          +0.081*[#  15]+0.081*[#  16]+0.004*[#   1]+0.004*[#   2]+0.004*[#   9]
          +0.004*[#  10]
    |psi|^2 = 0.994
==== e(   9) =     8.10338 eV ==== 
     psi = 0.060*[#   1]+0.060*[#   2]+0.060*[#   9]+0.060*[#  10]+0.041*[#   3]
          +0.041*[#   4]+0.041*[#   5]+0.041*[#   6]+0.041*[#   7]+0.041*[#   8]
          +0.041*[#  11]+0.041*[#  12]+0.041*[#  13]+0.041*[#  14]+0.041*[#  15]
          +0.041*[#  16]
    |psi|^2 = 0.739
==== e(  10) =     8.10338 eV ==== 
     psi = 0.060*[#   1]+0.060*[#   2]+0.060*[#   9]+0.060*[#  10]+0.041*[#   3]
          +0.041*[#   4]+0.041*[#   5]+0.041*[#   6]+0.041*[#   7]+0.041*[#   8]
          +0.041*[#  11]+0.041*[#  12]+0.041*[#  13]+0.041*[#  14]+0.041*[#  15]
          +0.041*[#  16]
    |psi|^2 = 0.739
==== e(  11) =     8.10338 eV ==== 
     psi = 0.060*[#   1]+0.060*[#   2]+0.060*[#   9]+0.060*[#  10]+0.041*[#   3]
          +0.041*[#   4]+0.041*[#   5]+0.041*[#   6]+0.041*[#   7]+0.041*[#   8]
          +0.041*[#  11]+0.041*[#  12]+0.041*[#  13]+0.041*[#  14]+0.041*[#  15]
          +0.041*[#  16]
    |psi|^2 = 0.739
==== e(  12) =     8.10338 eV ==== 
     psi = 0.060*[#   1]+0.060*[#   2]+0.060*[#   9]+0.060*[#  10]+0.041*[#   3]
          +0.041*[#   4]+0.041*[#   5]+0.041*[#   6]+0.041*[#   7]+0.041*[#   8]
          +0.041*[#  11]+0.041*[#  12]+0.041*[#  13]+0.041*[#  14]+0.041*[#  15]
          +0.041*[#  16]
    |psi|^2 = 0.739
==== e(  13) =    13.67100 eV ==== 
     psi = 0.040*[#   3]+0.040*[#   4]+0.040*[#   5]+0.040*[#   6]+0.040*[#   7]
          +0.040*[#   8]+0.040*[#  11]+0.040*[#  12]+0.040*[#  13]+0.040*[#  14]
          +0.040*[#  15]+0.040*[#  16]+0.023*[#   1]+0.023*[#   2]+0.023*[#   9]
          +0.023*[#  10]
    |psi|^2 = 0.578
==== e(  14) =    13.67100 eV ==== 
     psi = 0.040*[#   3]+0.040*[#   4]+0.040*[#   5]+0.040*[#   6]+0.040*[#   7]
          +0.040*[#   8]+0.040*[#  11]+0.040*[#  12]+0.040*[#  13]+0.040*[#  14]
          +0.040*[#  15]+0.040*[#  16]+0.023*[#   1]+0.023*[#   2]+0.023*[#   9]
          +0.023*[#  10]
    |psi|^2 = 0.578
==== e(  15) =    13.67100 eV ==== 
     psi = 0.040*[#   3]+0.040*[#   4]+0.040*[#   5]+0.040*[#   6]+0.040*[#   7]
          +0.040*[#   8]+0.040*[#  11]+0.040*[#  12]+0.040*[#  13]+0.040*[#  14]
          +0.040*[#  15]+0.040*[#  16]+0.023*[#   1]+0.023*[#   2]+0.023*[#   9]
          +0.023*[#  10]
    |psi|^2 = 0.578
==== e(  16) =    13.67100 eV ==== 
     psi = 0.040*[#   3]+0.040*[#   4]+0.040*[#   5]+0.040*[#   6]+0.040*[#   7]
          +0.040*[#   8]+0.040*[#  11]+0.040*[#  12]+0.040*[#  13]+0.040*[#  14]
          +0.040*[#  15]+0.040*[#  16]+0.023*[#   1]+0.023*[#   2]+0.023*[#   9]
          +0.023*[#  10]
    |psi|^2 = 0.578

 k =   0.2121320344  0.7071067812  0.0000000000
==== e(   1) =    -1.38141 eV ==== 
     psi = 0.143*[#   1]+0.143*[#   2]+0.143*[#   9]+0.143*[#  10]+0.035*[#   3]
          +0.035*[#   4]+0.035*[#   5]+0.035*[#   6]+0.035*[#   7]+0.035*[#   8]
          +0.035*[#  11]+0.035*[#  12]+0.035*[#  13]+0.035*[#  14]+0.035*[#  15]
          +0.035*[#  16]
    |psi|^2 = 0.996
==== e(   2) =    -1.38141 eV ==== 
     psi = 0.143*[#   1]+0.143*[#   2]+0.143*[#   9]+0.143*[#  10]+0.035*[#   3]
          +0.035*[#   4]+0.035*[#   5]+0.035*[#   6]+0.035*[#   7]+0.035*[#   8]
          +0.035*[#  11]+0.035*[#  12]+0.035*[#  13]+0.035*[#  14]+0.035*[#  15]
          +0.035*[#  16]
    |psi|^2 = 0.996
==== e(   3) =    -1.38141 eV ==== 
     psi = 0.143*[#   1]+0.143*[#   2]+0.143*[#   9]+0.143*[#  10]+0.035*[#   3]
          +0.035*[#   4]+0.035*[#   5]+0.035*[#   6]+0.035*[#   7]+0.035*[#   8]
          +0.035*[#  11]+0.035*[#  12]+0.035*[#  13]+0.035*[#  14]+0.035*[#  15]
          +0.035*[#  16]
    |psi|^2 = 0.996
==== e(   4) =    -1.38141 eV ==== 
     psi = 0.143*[#   1]+0.143*[#   2]+0.143*[#   9]+0.143*[#  10]+0.035*[#   3]
          +0.035*[#   4]+0.035*[#   5]+0.035*[#   6]+0.035*[#   7]+0.035*[#   8]
          +0.035*[#  11]+0.035*[#  12]+0.035*[#  13]+0.035*[#  14]+0.035*[#  15]
          +0.035*[#  16]
    |psi|^2 = 0.996
==== e(   5) =     2.48082 eV ==== 
     psi = 0.082*[#   3]+0.082*[#   4]+0.082*[#   5]+0.082*[#   6]+0.082*[#   7]
          +0.082*[#   8]+0.082*[#  11]+0.082*[#  12]+0.082*[#  13]+0.082*[#  14]
          +0.082*[#  15]+0.082*[#  16]+0.004*[#   1]+0.004*[#   2]+0.004*[#   9]
          +0.004*[#  10]
    |psi|^2 = 0.994
==== e(   6) =     2.48082 eV ==== 
     psi = 0.082*[#   3]+0.082*[#   4]+0.082*[#   5]+0.082*[#   6]+0.082*[#   7]
          +0.082*[#   8]+0.082*[#  11]+0.082*[#  12]+0.082*[#  13]+0.082*[#  14]
          +0.082*[#  15]+0.082*[#  16]+0.004*[#   1]+0.004*[#   2]+0.004*[#   9]
          +0.004*[#  10]
    |psi|^2 = 0.994
==== e(   7) =     2.48082 eV ==== 
     psi = 0.082*[#   3]+0.082*[#   4]+0.082*[#   5]+0.082*[#   6]+0.082*[#   7]
          +0.082*[#   8]+0.082*[#  11]+0.082*[#  12]+0.082*[#  13]+0.082*[#  14]
          +0.082*[#  15]+0.082*[#  16]+0.004*[#   1]+0.004*[#   2]+0.004*[#   9]
          +0.004*[#  10]
    |psi|^2 = 0.994
==== e(   8) =     2.48082 eV ==== 
     psi = 0.082*[#   3]+0.082*[#   4]+0.082*[#   5]+0.082*[#   6]+0.082*[#   7]
          +0.082*[#   8]+0.082*[#  11]+0.082*[#  12]+0.082*[#  13]+0.082*[#  14]
          +0.082*[#  15]+0.082*[#  16]+0.004*[#   1]+0.004*[#   2]+0.004*[#   9]
          +0.004*[#  10]
    |psi|^2 = 0.994
==== e(   9) =     8.34472 eV ==== 
     psi = 0.056*[#   1]+0.056*[#   2]+0.056*[#   9]+0.056*[#  10]+0.041*[#   3]
          +0.041*[#   4]+0.041*[#   5]+0.041*[#   6]+0.041*[#   7]+0.041*[#   8]
          +0.041*[#  11]+0.041*[#  12]+0.041*[#  13]+0.041*[#  14]+0.041*[#  15]
          +0.041*[#  16]
    |psi|^2 = 0.723
==== e(  10) =     8.34472 eV ==== 
     psi = 0.056*[#   1]+0.056*[#   2]+0.056*[#   9]+0.056*[#  10]+0.041*[#   3]
          +0.041*[#   4]+0.041*[#   5]+0.041*[#   6]+0.041*[#   7]+0.041*[#   8]
          +0.041*[#  11]+0.041*[#  12]+0.041*[#  13]+0.041*[#  14]+0.041*[#  15]
          +0.041*[#  16]
    |psi|^2 = 0.723
==== e(  11) =     8.34472 eV ==== 
     psi = 0.056*[#   1]+0.056*[#   2]+0.056*[#   9]+0.056*[#  10]+0.041*[#   3]
          +0.041*[#   4]+0.041*[#   5]+0.041*[#   6]+0.041*[#   7]+0.041*[#   8]
          +0.041*[#  11]+0.041*[#  12]+0.041*[#  13]+0.041*[#  14]+0.041*[#  15]
          +0.041*[#  16]
    |psi|^2 = 0.723
==== e(  12) =     8.34472 eV ==== 
     psi = 0.056*[#   1]+0.056*[#   2]+0.056*[#   9]+0.056*[#  10]+0.041*[#   3]
          +0.041*[#   4]+0.041*[#   5]+0.041*[#   6]+0.041*[#   7]+0.041*[#   8]
          +0.041*[#  11]+0.041*[#  12]+0.041*[#  13]+0.041*[#  14]+0.041*[#  15]
          +0.041*[#  16]
    |psi|^2 = 0.723
==== e(  13) =    13.33620 eV ==== 
     psi = 0.040*[#   3]+0.040*[#   4]+0.040*[#   5]+0.040*[#   6]+0.040*[#   7]
          +0.040*[#   8]+0.040*[#  11]+0.040*[#  12]+0.040*[#  13]+0.040*[#  14]
          +0.040*[#  15]+0.040*[#  16]+0.027*[#   1]+0.027*[#   2]+0.027*[#   9]
          +0.027*[#  10]
    |psi|^2 = 0.586
==== e(  14) =    13.33620 eV ==== 
     psi = 0.040*[#   3]+0.040*[#   4]+0.040*[#   5]+0.040*[#   6]+0.040*[#   7]
          +0.040*[#   8]+0.040*[#  11]+0.040*[#  12]+0.040*[#  13]+0.040*[#  14]
          +0.040*[#  15]+0.040*[#  16]+0.027*[#   1]+0.027*[#   2]+0.027*[#   9]
          +0.027*[#  10]
    |psi|^2 = 0.586
==== e(  15) =    13.33620 eV ==== 
     psi = 0.040*[#   3]+0.040*[#   4]+0.040*[#   5]+0.040*[#   6]+0.040*[#   7]
          +0.040*[#   8]+0.040*[#  11]+0.040*[#  12]+0.040*[#  13]+0.040*[#  14]
          +0.040*[#  15]+0.040*[#  16]+0.027*[#   1]+0.027*[#   2]+0.027*[#   9]
          +0.027*[#  10]
    |psi|^2 = 0.586
==== e(  16) =    13.33620 eV ==== 
     psi = 0.040*[#   3]+0.040*[#   4]+0.040*[#   5]+0.040*[#   6]+0.040*[#   7]
          +0.040*[#   8]+0.040*[#  11]+0.040*[#  12]+0.040*[#  13]+0.040*[#  14]
          +0.040*[#  15]+0.040*[#  16]+0.027*[#   1]+0.027*[#   2]+0.027*[#   9]
          +0.027*[#  10]
    |psi|^2 = 0.586

 k =   0.2298097039  0.7071067812  0.0000000000
==== e(   1) =    -1.36836 eV ==== 
     psi = 0.144*[#   1]+0.144*[#   2]+0.144*[#   9]+0.144*[#  10]+0.035*[#   3]
          +0.035*[#   4]+0.035*[#   5]+0.035*[#   6]+0.035*[#   7]+0.035*[#   8]
          +0.035*[#  11]+0.035*[#  12]+0.035*[#  13]+0.035*[#  14]+0.035*[#  15]
          +0.035*[#  16]
    |psi|^2 = 0.996
==== e(   2) =    -1.36836 eV ==== 
     psi = 0.144*[#   1]+0.144*[#   2]+0.144*[#   9]+0.144*[#  10]+0.035*[#   3]
          +0.035*[#   4]+0.035*[#   5]+0.035*[#   6]+0.035*[#   7]+0.035*[#   8]
          +0.035*[#  11]+0.035*[#  12]+0.035*[#  13]+0.035*[#  14]+0.035*[#  15]
          +0.035*[#  16]
    |psi|^2 = 0.996
==== e(   3) =    -1.36836 eV ==== 
     psi = 0.144*[#   1]+0.144*[#   2]+0.144*[#   9]+0.144*[#  10]+0.035*[#   3]
          +0.035*[#   4]+0.035*[#   5]+0.035*[#   6]+0.035*[#   7]+0.035*[#   8]
          +0.035*[#  11]+0.035*[#  12]+0.035*[#  13]+0.035*[#  14]+0.035*[#  15]
          +0.035*[#  16]
    |psi|^2 = 0.996
==== e(   4) =    -1.36836 eV ==== 
     psi = 0.144*[#   1]+0.144*[#   2]+0.144*[#   9]+0.144*[#  10]+0.035*[#   3]
          +0.035*[#   4]+0.035*[#   5]+0.035*[#   6]+0.035*[#   7]+0.035*[#   8]
          +0.035*[#  11]+0.035*[#  12]+0.035*[#  13]+0.035*[#  14]+0.035*[#  15]
          +0.035*[#  16]
    |psi|^2 = 0.996
==== e(   5) =     2.40810 eV ==== 
     psi = 0.082*[#   3]+0.082*[#   4]+0.082*[#   5]+0.082*[#   6]+0.082*[#   7]
          +0.082*[#   8]+0.082*[#  11]+0.082*[#  12]+0.082*[#  13]+0.082*[#  14]
          +0.082*[#  15]+0.082*[#  16]+0.003*[#   1]+0.003*[#   2]+0.003*[#   9]
          +0.003*[#  10]
    |psi|^2 = 0.995
==== e(   6) =     2.40810 eV ==== 
     psi = 0.082*[#   3]+0.082*[#   4]+0.082*[#   5]+0.082*[#   6]+0.082*[#   7]
          +0.082*[#   8]+0.082*[#  11]+0.082*[#  12]+0.082*[#  13]+0.082*[#  14]
          +0.082*[#  15]+0.082*[#  16]+0.003*[#   1]+0.003*[#   2]+0.003*[#   9]
          +0.003*[#  10]
    |psi|^2 = 0.995
==== e(   7) =     2.40810 eV ==== 
     psi = 0.082*[#   3]+0.082*[#   4]+0.082*[#   5]+0.082*[#   6]+0.082*[#   7]
          +0.082*[#   8]+0.082*[#  11]+0.082*[#  12]+0.082*[#  13]+0.082*[#  14]
          +0.082*[#  15]+0.082*[#  16]+0.003*[#   1]+0.003*[#   2]+0.003*[#   9]
          +0.003*[#  10]
    |psi|^2 = 0.995
==== e(   8) =     2.40810 eV ==== 
     psi = 0.082*[#   3]+0.082*[#   4]+0.082*[#   5]+0.082*[#   6]+0.082*[#   7]
          +0.082*[#   8]+0.082*[#  11]+0.082*[#  12]+0.082*[#  13]+0.082*[#  14]
          +0.082*[#  15]+0.082*[#  16]+0.003*[#   1]+0.003*[#   2]+0.003*[#   9]
          +0.003*[#  10]
    |psi|^2 = 0.995
==== e(   9) =     8.59293 eV ==== 
     psi = 0.052*[#   1]+0.052*[#   2]+0.052*[#   9]+0.052*[#  10]+0.041*[#   3]
          +0.041*[#   4]+0.041*[#   5]+0.041*[#   6]+0.041*[#   7]+0.041*[#   8]
          +0.041*[#  11]+0.041*[#  12]+0.041*[#  13]+0.041*[#  14]+0.041*[#  15]
          +0.041*[#  16]
    |psi|^2 = 0.706
==== e(  10) =     8.59293 eV ==== 
     psi = 0.052*[#   1]+0.052*[#   2]+0.052*[#   9]+0.052*[#  10]+0.041*[#   3]
          +0.041*[#   4]+0.041*[#   5]+0.041*[#   6]+0.041*[#   7]+0.041*[#   8]
          +0.041*[#  11]+0.041*[#  12]+0.041*[#  13]+0.041*[#  14]+0.041*[#  15]
          +0.041*[#  16]
    |psi|^2 = 0.706
==== e(  11) =     8.59293 eV ==== 
     psi = 0.052*[#   1]+0.052*[#   2]+0.052*[#   9]+0.052*[#  10]+0.041*[#   3]
          +0.041*[#   4]+0.041*[#   5]+0.041*[#   6]+0.041*[#   7]+0.041*[#   8]
          +0.041*[#  11]+0.041*[#  12]+0.041*[#  13]+0.041*[#  14]+0.041*[#  15]
          +0.041*[#  16]
    |psi|^2 = 0.706
==== e(  12) =     8.59293 eV ==== 
     psi = 0.052*[#   1]+0.052*[#   2]+0.052*[#   9]+0.052*[#  10]+0.041*[#   3]
          +0.041*[#   4]+0.041*[#   5]+0.041*[#   6]+0.041*[#   7]+0.041*[#   8]
          +0.041*[#  11]+0.041*[#  12]+0.041*[#  13]+0.041*[#  14]+0.041*[#  15]
          +0.041*[#  16]
    |psi|^2 = 0.706
==== e(  13) =    12.99108 eV ==== 
     psi = 0.040*[#   3]+0.040*[#   4]+0.040*[#   5]+0.040*[#   6]+0.040*[#   7]
          +0.040*[#   8]+0.040*[#  11]+0.040*[#  12]+0.040*[#  13]+0.040*[#  14]
          +0.040*[#  15]+0.040*[#  16]+0.030*[#   1]+0.030*[#   2]+0.030*[#   9]
          +0.030*[#  10]
    |psi|^2 = 0.597
==== e(  14) =    12.99108 eV ==== 
     psi = 0.040*[#   3]+0.040*[#   4]+0.040*[#   5]+0.040*[#   6]+0.040*[#   7]
          +0.040*[#   8]+0.040*[#  11]+0.040*[#  12]+0.040*[#  13]+0.040*[#  14]
          +0.040*[#  15]+0.040*[#  16]+0.030*[#   1]+0.030*[#   2]+0.030*[#   9]
          +0.030*[#  10]
    |psi|^2 = 0.597
==== e(  15) =    12.99108 eV ==== 
     psi = 0.040*[#   3]+0.040*[#   4]+0.040*[#   5]+0.040*[#   6]+0.040*[#   7]
          +0.040*[#   8]+0.040*[#  11]+0.040*[#  12]+0.040*[#  13]+0.040*[#  14]
          +0.040*[#  15]+0.040*[#  16]+0.030*[#   1]+0.030*[#   2]+0.030*[#   9]
          +0.030*[#  10]
    |psi|^2 = 0.597
==== e(  16) =    12.99108 eV ==== 
     psi = 0.040*[#   3]+0.040*[#   4]+0.040*[#   5]+0.040*[#   6]+0.040*[#   7]
          +0.040*[#   8]+0.040*[#  11]+0.040*[#  12]+0.040*[#  13]+0.040*[#  14]
          +0.040*[#  15]+0.040*[#  16]+0.030*[#   1]+0.030*[#   2]+0.030*[#   9]
          +0.030*[#  10]
    |psi|^2 = 0.597

 k =   0.2474873734  0.7071067812  0.0000000000
==== e(   1) =    -1.35416 eV ==== 
     psi = 0.145*[#   1]+0.145*[#   2]+0.145*[#   9]+0.145*[#  10]+0.035*[#   3]
          +0.035*[#   4]+0.035*[#   5]+0.035*[#   6]+0.035*[#   7]+0.035*[#   8]
          +0.035*[#  11]+0.035*[#  12]+0.035*[#  13]+0.035*[#  14]+0.035*[#  15]
          +0.035*[#  16]
    |psi|^2 = 0.996
==== e(   2) =    -1.35416 eV ==== 
     psi = 0.145*[#   1]+0.145*[#   2]+0.145*[#   9]+0.145*[#  10]+0.035*[#   3]
          +0.035*[#   4]+0.035*[#   5]+0.035*[#   6]+0.035*[#   7]+0.035*[#   8]
          +0.035*[#  11]+0.035*[#  12]+0.035*[#  13]+0.035*[#  14]+0.035*[#  15]
          +0.035*[#  16]
    |psi|^2 = 0.996
==== e(   3) =    -1.35416 eV ==== 
     psi = 0.145*[#   1]+0.145*[#   2]+0.145*[#   9]+0.145*[#  10]+0.035*[#   3]
          +0.035*[#   4]+0.035*[#   5]+0.035*[#   6]+0.035*[#   7]+0.035*[#   8]
          +0.035*[#  11]+0.035*[#  12]+0.035*[#  13]+0.035*[#  14]+0.035*[#  15]
          +0.035*[#  16]
    |psi|^2 = 0.996
==== e(   4) =    -1.35416 eV ==== 
     psi = 0.145*[#   1]+0.145*[#   2]+0.145*[#   9]+0.145*[#  10]+0.035*[#   3]
          +0.035*[#   4]+0.035*[#   5]+0.035*[#   6]+0.035*[#   7]+0.035*[#   8]
          +0.035*[#  11]+0.035*[#  12]+0.035*[#  13]+0.035*[#  14]+0.035*[#  15]
          +0.035*[#  16]
    |psi|^2 = 0.996
==== e(   5) =     2.34301 eV ==== 
     psi = 0.082*[#   3]+0.082*[#   4]+0.082*[#   5]+0.082*[#   6]+0.082*[#   7]
          +0.082*[#   8]+0.082*[#  11]+0.082*[#  12]+0.082*[#  13]+0.082*[#  14]
          +0.082*[#  15]+0.082*[#  16]+0.003*[#   1]+0.003*[#   2]+0.003*[#   9]
          +0.003*[#  10]
    |psi|^2 = 0.995
==== e(   6) =     2.34301 eV ==== 
     psi = 0.082*[#   3]+0.082*[#   4]+0.082*[#   5]+0.082*[#   6]+0.082*[#   7]
          +0.082*[#   8]+0.082*[#  11]+0.082*[#  12]+0.082*[#  13]+0.082*[#  14]
          +0.082*[#  15]+0.082*[#  16]+0.003*[#   1]+0.003*[#   2]+0.003*[#   9]
          +0.003*[#  10]
    |psi|^2 = 0.995
==== e(   7) =     2.34301 eV ==== 
     psi = 0.082*[#   3]+0.082*[#   4]+0.082*[#   5]+0.082*[#   6]+0.082*[#   7]
          +0.082*[#   8]+0.082*[#  11]+0.082*[#  12]+0.082*[#  13]+0.082*[#  14]
          +0.082*[#  15]+0.082*[#  16]+0.003*[#   1]+0.003*[#   2]+0.003*[#   9]
          +0.003*[#  10]
    |psi|^2 = 0.995
==== e(   8) =     2.34301 eV ==== 
     psi = 0.082*[#   3]+0.082*[#   4]+0.082*[#   5]+0.082*[#   6]+0.082*[#   7]
          +0.082*[#   8]+0.082*[#  11]+0.082*[#  12]+0.082*[#  13]+0.082*[#  14]
          +0.082*[#  15]+0.082*[#  16]+0.003*[#   1]+0.003*[#   2]+0.003*[#   9]
          +0.003*[#  10]
    |psi|^2 = 0.995
==== e(   9) =     8.84891 eV ==== 
     psi = 0.048*[#   1]+0.048*[#   2]+0.048*[#   9]+0.048*[#  10]+0.041*[#   3]
          +0.041*[#   4]+0.041*[#   5]+0.041*[#   6]+0.041*[#   7]+0.041*[#   8]
          +0.041*[#  11]+0.041*[#  12]+0.041*[#  13]+0.041*[#  14]+0.041*[#  15]
          +0.041*[#  16]
    |psi|^2 = 0.686
==== e(  10) =     8.84891 eV ==== 
     psi = 0.048*[#   1]+0.048*[#   2]+0.048*[#   9]+0.048*[#  10]+0.041*[#   3]
          +0.041*[#   4]+0.041*[#   5]+0.041*[#   6]+0.041*[#   7]+0.041*[#   8]
          +0.041*[#  11]+0.041*[#  12]+0.041*[#  13]+0.041*[#  14]+0.041*[#  15]
          +0.041*[#  16]
    |psi|^2 = 0.686
==== e(  11) =     8.84891 eV ==== 
     psi = 0.048*[#   1]+0.048*[#   2]+0.048*[#   9]+0.048*[#  10]+0.041*[#   3]
          +0.041*[#   4]+0.041*[#   5]+0.041*[#   6]+0.041*[#   7]+0.041*[#   8]
          +0.041*[#  11]+0.041*[#  12]+0.041*[#  13]+0.041*[#  14]+0.041*[#  15]
          +0.041*[#  16]
    |psi|^2 = 0.686
==== e(  12) =     8.84891 eV ==== 
     psi = 0.048*[#   1]+0.048*[#   2]+0.048*[#   9]+0.048*[#  10]+0.041*[#   3]
          +0.041*[#   4]+0.041*[#   5]+0.041*[#   6]+0.041*[#   7]+0.041*[#   8]
          +0.041*[#  11]+0.041*[#  12]+0.041*[#  13]+0.041*[#  14]+0.041*[#  15]
          +0.041*[#  16]
    |psi|^2 = 0.686
==== e(  13) =    12.66382 eV ==== 
     psi = 0.040*[#   3]+0.040*[#   4]+0.040*[#   5]+0.040*[#   6]+0.040*[#   7]
          +0.040*[#   8]+0.040*[#  11]+0.040*[#  12]+0.040*[#  13]+0.040*[#  14]
          +0.040*[#  15]+0.040*[#  16]+0.034*[#   1]+0.034*[#   2]+0.034*[#   9]
          +0.034*[#  10]
    |psi|^2 = 0.613
==== e(  14) =    12.66382 eV ==== 
     psi = 0.040*[#   3]+0.040*[#   4]+0.040*[#   5]+0.040*[#   6]+0.040*[#   7]
          +0.040*[#   8]+0.040*[#  11]+0.040*[#  12]+0.040*[#  13]+0.040*[#  14]
          +0.040*[#  15]+0.040*[#  16]+0.034*[#   1]+0.034*[#   2]+0.034*[#   9]
          +0.034*[#  10]
    |psi|^2 = 0.613
==== e(  15) =    12.66382 eV ==== 
     psi = 0.040*[#   3]+0.040*[#   4]+0.040*[#   5]+0.040*[#   6]+0.040*[#   7]
          +0.040*[#   8]+0.040*[#  11]+0.040*[#  12]+0.040*[#  13]+0.040*[#  14]
          +0.040*[#  15]+0.040*[#  16]+0.034*[#   1]+0.034*[#   2]+0.034*[#   9]
          +0.034*[#  10]
[...]
          +0.010*[#  10]
    |psi|^2 = 0.966
==== e(   5) =     6.15987 eV ==== 
     psi = 0.080*[#   3]+0.080*[#   4]+0.080*[#   5]+0.080*[#   6]+0.080*[#   7]
          +0.080*[#   8]+0.080*[#  11]+0.080*[#  12]+0.080*[#  13]+0.080*[#  14]
          +0.080*[#  15]+0.080*[#  16]
    |psi|^2 = 0.966
==== e(   6) =     6.15987 eV ==== 
     psi = 0.080*[#   3]+0.080*[#   4]+0.080*[#   5]+0.080*[#   6]+0.080*[#   7]
          +0.080*[#   8]+0.080*[#  11]+0.080*[#  12]+0.080*[#  13]+0.080*[#  14]
          +0.080*[#  15]+0.080*[#  16]
    |psi|^2 = 0.966
==== e(   7) =     6.24984 eV ==== 
     psi = 0.080*[#   3]+0.080*[#   4]+0.080*[#   5]+0.080*[#   6]+0.080*[#   7]
          +0.080*[#   8]+0.080*[#  11]+0.080*[#  12]+0.080*[#  13]+0.080*[#  14]
          +0.080*[#  15]+0.080*[#  16]
    |psi|^2 = 0.964
==== e(   8) =     6.24984 eV ==== 
     psi = 0.080*[#   3]+0.080*[#   4]+0.080*[#   5]+0.080*[#   6]+0.080*[#   7]
          +0.080*[#   8]+0.080*[#  11]+0.080*[#  12]+0.080*[#  13]+0.080*[#  14]
          +0.080*[#  15]+0.080*[#  16]
    |psi|^2 = 0.964
==== e(   9) =     8.75773 eV ==== 
     psi = 0.080*[#   3]+0.080*[#   4]+0.080*[#   5]+0.080*[#   6]+0.080*[#   7]
          +0.080*[#   8]+0.080*[#  11]+0.080*[#  12]+0.080*[#  13]+0.080*[#  14]
          +0.080*[#  15]+0.080*[#  16]
    |psi|^2 = 0.965
==== e(  10) =     8.75773 eV ==== 
     psi = 0.080*[#   3]+0.080*[#   4]+0.080*[#   5]+0.080*[#   6]+0.080*[#   7]
          +0.080*[#   8]+0.080*[#  11]+0.080*[#  12]+0.080*[#  13]+0.080*[#  14]
          +0.080*[#  15]+0.080*[#  16]
    |psi|^2 = 0.965
==== e(  11) =     8.77234 eV ==== 
     psi = 0.079*[#   3]+0.079*[#   4]+0.079*[#   5]+0.079*[#   6]+0.079*[#   7]
          +0.079*[#   8]+0.079*[#  11]+0.079*[#  12]+0.079*[#  13]+0.079*[#  14]
          +0.079*[#  15]+0.079*[#  16]+0.003*[#   1]+0.003*[#   2]+0.003*[#   9]
          +0.003*[#  10]
    |psi|^2 = 0.961
==== e(  12) =     8.77234 eV ==== 
     psi = 0.079*[#   3]+0.079*[#   4]+0.079*[#   5]+0.079*[#   6]+0.079*[#   7]
          +0.079*[#   8]+0.079*[#  11]+0.079*[#  12]+0.079*[#  13]+0.079*[#  14]
          +0.079*[#  15]+0.079*[#  16]+0.003*[#   1]+0.003*[#   2]+0.003*[#   9]
          +0.003*[#  10]
    |psi|^2 = 0.961
==== e(  13) =     8.84470 eV ==== 
     psi = 0.079*[#   3]+0.079*[#   4]+0.079*[#   5]+0.079*[#   6]+0.079*[#   7]
          +0.079*[#   8]+0.079*[#  11]+0.079*[#  12]+0.079*[#  13]+0.079*[#  14]
          +0.079*[#  15]+0.079*[#  16]+0.005*[#   1]+0.005*[#   2]+0.005*[#   9]
          +0.005*[#  10]
    |psi|^2 = 0.963
==== e(  14) =     8.84470 eV ==== 
     psi = 0.079*[#   3]+0.079*[#   4]+0.079*[#   5]+0.079*[#   6]+0.079*[#   7]
          +0.079*[#   8]+0.079*[#  11]+0.079*[#  12]+0.079*[#  13]+0.079*[#  14]
          +0.079*[#  15]+0.079*[#  16]+0.005*[#   1]+0.005*[#   2]+0.005*[#   9]
          +0.005*[#  10]
    |psi|^2 = 0.963
==== e(  15) =     9.80518 eV ==== 
     psi = 0.229*[#   1]+0.229*[#   2]+0.229*[#   9]+0.229*[#  10]+0.005*[#   3]
          +0.005*[#   4]+0.005*[#   5]+0.005*[#   6]+0.005*[#   7]+0.005*[#   8]
          +0.005*[#  11]+0.005*[#  12]+0.005*[#  13]+0.005*[#  14]+0.005*[#  15]
          +0.005*[#  16]
    |psi|^2 = 0.974
==== e(  16) =     9.80518 eV ==== 
     psi = 0.229*[#   1]+0.229*[#   2]+0.229*[#   9]+0.229*[#  10]+0.005*[#   3]
          +0.005*[#   4]+0.005*[#   5]+0.005*[#   6]+0.005*[#   7]+0.005*[#   8]
          +0.005*[#  11]+0.005*[#  12]+0.005*[#  13]+0.005*[#  14]+0.005*[#  15]
          +0.005*[#  16]
    |psi|^2 = 0.974

 k =   0.0265165043  0.0265165043  0.0000000000
==== e(   1) =    -5.68085 eV ==== 
     psi = 0.248*[#   1]+0.248*[#   2]+0.248*[#   9]+0.248*[#  10]
    |psi|^2 = 0.999
==== e(   2) =    -5.68085 eV ==== 
     psi = 0.248*[#   1]+0.248*[#   2]+0.248*[#   9]+0.248*[#  10]
    |psi|^2 = 0.999
==== e(   3) =     6.13402 eV ==== 
     psi = 0.078*[#   3]+0.078*[#   4]+0.078*[#   5]+0.078*[#   6]+0.078*[#   7]
          +0.078*[#   8]+0.078*[#  11]+0.078*[#  12]+0.078*[#  13]+0.078*[#  14]
          +0.078*[#  15]+0.078*[#  16]+0.006*[#   1]+0.006*[#   2]+0.006*[#   9]
          +0.006*[#  10]
    |psi|^2 = 0.965
==== e(   4) =     6.13402 eV ==== 
     psi = 0.078*[#   3]+0.078*[#   4]+0.078*[#   5]+0.078*[#   6]+0.078*[#   7]
          +0.078*[#   8]+0.078*[#  11]+0.078*[#  12]+0.078*[#  13]+0.078*[#  14]
          +0.078*[#  15]+0.078*[#  16]+0.006*[#   1]+0.006*[#   2]+0.006*[#   9]
          +0.006*[#  10]
    |psi|^2 = 0.965
==== e(   5) =     6.20379 eV ==== 
     psi = 0.080*[#   3]+0.080*[#   4]+0.080*[#   5]+0.080*[#   6]+0.080*[#   7]
          +0.080*[#   8]+0.080*[#  11]+0.080*[#  12]+0.080*[#  13]+0.080*[#  14]
          +0.080*[#  15]+0.080*[#  16]
    |psi|^2 = 0.965
==== e(   6) =     6.20379 eV ==== 
     psi = 0.080*[#   3]+0.080*[#   4]+0.080*[#   5]+0.080*[#   6]+0.080*[#   7]
          +0.080*[#   8]+0.080*[#  11]+0.080*[#  12]+0.080*[#  13]+0.080*[#  14]
          +0.080*[#  15]+0.080*[#  16]
    |psi|^2 = 0.965
==== e(   7) =     6.25389 eV ==== 
     psi = 0.080*[#   3]+0.080*[#   4]+0.080*[#   5]+0.080*[#   6]+0.080*[#   7]
          +0.080*[#   8]+0.080*[#  11]+0.080*[#  12]+0.080*[#  13]+0.080*[#  14]
          +0.080*[#  15]+0.080*[#  16]
    |psi|^2 = 0.964
==== e(   8) =     6.25389 eV ==== 
     psi = 0.080*[#   3]+0.080*[#   4]+0.080*[#   5]+0.080*[#   6]+0.080*[#   7]
          +0.080*[#   8]+0.080*[#  11]+0.080*[#  12]+0.080*[#  13]+0.080*[#  14]
          +0.080*[#  15]+0.080*[#  16]
    |psi|^2 = 0.964
==== e(   9) =     8.74781 eV ==== 
     psi = 0.080*[#   3]+0.080*[#   4]+0.080*[#   5]+0.080*[#   6]+0.080*[#   7]
          +0.080*[#   8]+0.080*[#  11]+0.080*[#  12]+0.080*[#  13]+0.080*[#  14]
          +0.080*[#  15]+0.080*[#  16]
    |psi|^2 = 0.965
==== e(  10) =     8.74781 eV ==== 
     psi = 0.080*[#   3]+0.080*[#   4]+0.080*[#   5]+0.080*[#   6]+0.080*[#   7]
          +0.080*[#   8]+0.080*[#  11]+0.080*[#  12]+0.080*[#  13]+0.080*[#  14]
          +0.080*[#  15]+0.080*[#  16]
    |psi|^2 = 0.965
==== e(  11) =     8.75813 eV ==== 
     psi = 0.080*[#   3]+0.080*[#   4]+0.080*[#   5]+0.080*[#   6]+0.080*[#   7]
          +0.080*[#   8]+0.080*[#  11]+0.080*[#  12]+0.080*[#  13]+0.080*[#  14]
          +0.080*[#  15]+0.080*[#  16]+0.002*[#   1]+0.002*[#   2]+0.002*[#   9]
          +0.002*[#  10]
    |psi|^2 = 0.963
==== e(  12) =     8.75813 eV ==== 
     psi = 0.080*[#   3]+0.080*[#   4]+0.080*[#   5]+0.080*[#   6]+0.080*[#   7]
          +0.080*[#   8]+0.080*[#  11]+0.080*[#  12]+0.080*[#  13]+0.080*[#  14]
          +0.080*[#  15]+0.080*[#  16]+0.002*[#   1]+0.002*[#   2]+0.002*[#   9]
          +0.002*[#  10]
    |psi|^2 = 0.963
==== e(  13) =     8.80347 eV ==== 
     psi = 0.080*[#   3]+0.080*[#   4]+0.080*[#   5]+0.080*[#   6]+0.080*[#   7]
          +0.080*[#   8]+0.080*[#  11]+0.080*[#  12]+0.080*[#  13]+0.080*[#  14]
          +0.080*[#  15]+0.080*[#  16]+0.002*[#   1]+0.002*[#   2]+0.002*[#   9]
          +0.002*[#  10]
    |psi|^2 = 0.964
==== e(  14) =     8.80347 eV ==== 
     psi = 0.080*[#   3]+0.080*[#   4]+0.080*[#   5]+0.080*[#   6]+0.080*[#   7]
          +0.080*[#   8]+0.080*[#  11]+0.080*[#  12]+0.080*[#  13]+0.080*[#  14]
          +0.080*[#  15]+0.080*[#  16]+0.002*[#   1]+0.002*[#   2]+0.002*[#   9]
          +0.002*[#  10]
    |psi|^2 = 0.964
==== e(  15) =     9.74035 eV ==== 
     psi = 0.236*[#   1]+0.236*[#   2]+0.236*[#   9]+0.236*[#  10]+0.003*[#   3]
          +0.003*[#   4]+0.003*[#   5]+0.003*[#   6]+0.003*[#   7]+0.003*[#   8]
          +0.003*[#  11]+0.003*[#  12]+0.003*[#  13]+0.003*[#  14]+0.003*[#  15]
          +0.003*[#  16]
    |psi|^2 = 0.975
==== e(  16) =     9.74035 eV ==== 
     psi = 0.236*[#   1]+0.236*[#   2]+0.236*[#   9]+0.236*[#  10]+0.003*[#   3]
          +0.003*[#   4]+0.003*[#   5]+0.003*[#   6]+0.003*[#   7]+0.003*[#   8]
          +0.003*[#  11]+0.003*[#  12]+0.003*[#  13]+0.003*[#  14]+0.003*[#  15]
          +0.003*[#  16]
    |psi|^2 = 0.975

 k =   0.0176776695  0.0176776695  0.0000000000
==== e(   1) =    -5.68767 eV ==== 
     psi = 0.249*[#   1]+0.249*[#   2]+0.249*[#   9]+0.249*[#  10]
    |psi|^2 = 0.999
==== e(   2) =    -5.68767 eV ==== 
     psi = 0.249*[#   1]+0.249*[#   2]+0.249*[#   9]+0.249*[#  10]
    |psi|^2 = 0.999
==== e(   3) =     6.20439 eV ==== 
     psi = 0.079*[#   3]+0.079*[#   4]+0.079*[#   5]+0.079*[#   6]+0.079*[#   7]
          +0.079*[#   8]+0.079*[#  11]+0.079*[#  12]+0.079*[#  13]+0.079*[#  14]
          +0.079*[#  15]+0.079*[#  16]+0.003*[#   1]+0.003*[#   2]+0.003*[#   9]
          +0.003*[#  10]
    |psi|^2 = 0.964
==== e(   4) =     6.20439 eV ==== 
     psi = 0.079*[#   3]+0.079*[#   4]+0.079*[#   5]+0.079*[#   6]+0.079*[#   7]
          +0.079*[#   8]+0.079*[#  11]+0.079*[#  12]+0.079*[#  13]+0.079*[#  14]
          +0.079*[#  15]+0.079*[#  16]+0.003*[#   1]+0.003*[#   2]+0.003*[#   9]
          +0.003*[#  10]
    |psi|^2 = 0.964
==== e(   5) =     6.23572 eV ==== 
     psi = 0.080*[#   3]+0.080*[#   4]+0.080*[#   5]+0.080*[#   6]+0.080*[#   7]
          +0.080*[#   8]+0.080*[#  11]+0.080*[#  12]+0.080*[#  13]+0.080*[#  14]
          +0.080*[#  15]+0.080*[#  16]
    |psi|^2 = 0.964
==== e(   6) =     6.23572 eV ==== 
     psi = 0.080*[#   3]+0.080*[#   4]+0.080*[#   5]+0.080*[#   6]+0.080*[#   7]
          +0.080*[#   8]+0.080*[#  11]+0.080*[#  12]+0.080*[#  13]+0.080*[#  14]
          +0.080*[#  15]+0.080*[#  16]
    |psi|^2 = 0.964
==== e(   7) =     6.25678 eV ==== 
     psi = 0.080*[#   3]+0.080*[#   4]+0.080*[#   5]+0.080*[#   6]+0.080*[#   7]
          +0.080*[#   8]+0.080*[#  11]+0.080*[#  12]+0.080*[#  13]+0.080*[#  14]
          +0.080*[#  15]+0.080*[#  16]
    |psi|^2 = 0.963
==== e(   8) =     6.25678 eV ==== 
     psi = 0.080*[#   3]+0.080*[#   4]+0.080*[#   5]+0.080*[#   6]+0.080*[#   7]
          +0.080*[#   8]+0.080*[#  11]+0.080*[#  12]+0.080*[#  13]+0.080*[#  14]
          +0.080*[#  15]+0.080*[#  16]
    |psi|^2 = 0.963
==== e(   9) =     8.74073 eV ==== 
     psi = 0.080*[#   3]+0.080*[#   4]+0.080*[#   5]+0.080*[#   6]+0.080*[#   7]
          +0.080*[#   8]+0.080*[#  11]+0.080*[#  12]+0.080*[#  13]+0.080*[#  14]
          +0.080*[#  15]+0.080*[#  16]
    |psi|^2 = 0.965
==== e(  10) =     8.74073 eV ==== 
     psi = 0.080*[#   3]+0.080*[#   4]+0.080*[#   5]+0.080*[#   6]+0.080*[#   7]
          +0.080*[#   8]+0.080*[#  11]+0.080*[#  12]+0.080*[#  13]+0.080*[#  14]
          +0.080*[#  15]+0.080*[#  16]
    |psi|^2 = 0.965
==== e(  11) =     8.74790 eV ==== 
     psi = 0.080*[#   3]+0.080*[#   4]+0.080*[#   5]+0.080*[#   6]+0.080*[#   7]
          +0.080*[#   8]+0.080*[#  11]+0.080*[#  12]+0.080*[#  13]+0.080*[#  14]
          +0.080*[#  15]+0.080*[#  16]
    |psi|^2 = 0.965
==== e(  12) =     8.74790 eV ==== 
     psi = 0.080*[#   3]+0.080*[#   4]+0.080*[#   5]+0.080*[#   6]+0.080*[#   7]
          +0.080*[#   8]+0.080*[#  11]+0.080*[#  12]+0.080*[#  13]+0.080*[#  14]
          +0.080*[#  15]+0.080*[#  16]
    |psi|^2 = 0.965
==== e(  13) =     8.76907 eV ==== 
     psi = 0.080*[#   3]+0.080*[#   4]+0.080*[#   5]+0.080*[#   6]+0.080*[#   7]
          +0.080*[#   8]+0.080*[#  11]+0.080*[#  12]+0.080*[#  13]+0.080*[#  14]
          +0.080*[#  15]+0.080*[#  16]
    |psi|^2 = 0.965
==== e(  14) =     8.76907 eV ==== 
     psi = 0.080*[#   3]+0.080*[#   4]+0.080*[#   5]+0.080*[#   6]+0.080*[#   7]
          +0.080*[#   8]+0.080*[#  11]+0.080*[#  12]+0.080*[#  13]+0.080*[#  14]
          +0.080*[#  15]+0.080*[#  16]
    |psi|^2 = 0.965
==== e(  15) =     9.69496 eV ==== 
     psi = 0.240*[#   1]+0.240*[#   2]+0.240*[#   9]+0.240*[#  10]+0.001*[#   3]
          +0.001*[#   4]+0.001*[#   5]+0.001*[#   6]+0.001*[#   7]+0.001*[#   8]
          +0.001*[#  11]+0.001*[#  12]+0.001*[#  13]+0.001*[#  14]+0.001*[#  15]
          +0.001*[#  16]
    |psi|^2 = 0.975
==== e(  16) =     9.69496 eV ==== 
     psi = 0.240*[#   1]+0.240*[#   2]+0.240*[#   9]+0.240*[#  10]+0.001*[#   3]
          +0.001*[#   4]+0.001*[#   5]+0.001*[#   6]+0.001*[#   7]+0.001*[#   8]
          +0.001*[#  11]+0.001*[#  12]+0.001*[#  13]+0.001*[#  14]+0.001*[#  15]
          +0.001*[#  16]
    |psi|^2 = 0.975

 k =   0.0088388348  0.0088388348  0.0000000000
==== e(   1) =    -5.69190 eV ==== 
     psi = 0.250*[#   1]+0.250*[#   2]+0.250*[#   9]+0.250*[#  10]
    |psi|^2 = 0.999
==== e(   2) =    -5.69190 eV ==== 
     psi = 0.250*[#   1]+0.250*[#   2]+0.250*[#   9]+0.250*[#  10]
    |psi|^2 = 0.999
==== e(   3) =     6.24739 eV ==== 
     psi = 0.080*[#   3]+0.080*[#   4]+0.080*[#   5]+0.080*[#   6]+0.080*[#   7]
          +0.080*[#   8]+0.080*[#  11]+0.080*[#  12]+0.080*[#  13]+0.080*[#  14]
          +0.080*[#  15]+0.080*[#  16]
    |psi|^2 = 0.964
==== e(   4) =     6.24739 eV ==== 
     psi = 0.080*[#   3]+0.080*[#   4]+0.080*[#   5]+0.080*[#   6]+0.080*[#   7]
          +0.080*[#   8]+0.080*[#  11]+0.080*[#  12]+0.080*[#  13]+0.080*[#  14]
          +0.080*[#  15]+0.080*[#  16]
    |psi|^2 = 0.964
==== e(   5) =     6.25496 eV ==== 
     psi = 0.080*[#   3]+0.080*[#   4]+0.080*[#   5]+0.080*[#   6]+0.080*[#   7]
          +0.080*[#   8]+0.080*[#  11]+0.080*[#  12]+0.080*[#  13]+0.080*[#  14]
          +0.080*[#  15]+0.080*[#  16]
    |psi|^2 = 0.963
==== e(   6) =     6.25496 eV ==== 
     psi = 0.080*[#   3]+0.080*[#   4]+0.080*[#   5]+0.080*[#   6]+0.080*[#   7]
          +0.080*[#   8]+0.080*[#  11]+0.080*[#  12]+0.080*[#  13]+0.080*[#  14]
          +0.080*[#  15]+0.080*[#  16]
    |psi|^2 = 0.963
==== e(   7) =     6.25853 eV ==== 
     psi = 0.080*[#   3]+0.080*[#   4]+0.080*[#   5]+0.080*[#   6]+0.080*[#   7]
          +0.080*[#   8]+0.080*[#  11]+0.080*[#  12]+0.080*[#  13]+0.080*[#  14]
          +0.080*[#  15]+0.080*[#  16]
    |psi|^2 = 0.963
==== e(   8) =     6.25853 eV ==== 
     psi = 0.080*[#   3]+0.080*[#   4]+0.080*[#   5]+0.080*[#   6]+0.080*[#   7]
          +0.080*[#   8]+0.080*[#  11]+0.080*[#  12]+0.080*[#  13]+0.080*[#  14]
          +0.080*[#  15]+0.080*[#  16]
    |psi|^2 = 0.963
==== e(   9) =     8.73650 eV ==== 
     psi = 0.080*[#   3]+0.080*[#   4]+0.080*[#   5]+0.080*[#   6]+0.080*[#   7]
          +0.080*[#   8]+0.080*[#  11]+0.080*[#  12]+0.080*[#  13]+0.080*[#  14]
          +0.080*[#  15]+0.080*[#  16]
    |psi|^2 = 0.965
==== e(  10) =     8.73650 eV ==== 
     psi = 0.080*[#   3]+0.080*[#   4]+0.080*[#   5]+0.080*[#   6]+0.080*[#   7]
          +0.080*[#   8]+0.080*[#  11]+0.080*[#  12]+0.080*[#  13]+0.080*[#  14]
          +0.080*[#  15]+0.080*[#  16]
    |psi|^2 = 0.965
==== e(  11) =     8.74054 eV ==== 
     psi = 0.080*[#   3]+0.080*[#   4]+0.080*[#   5]+0.080*[#   6]+0.080*[#   7]
          +0.080*[#   8]+0.080*[#  11]+0.080*[#  12]+0.080*[#  13]+0.080*[#  14]
          +0.080*[#  15]+0.080*[#  16]
    |psi|^2 = 0.965
==== e(  12) =     8.74054 eV ==== 
     psi = 0.080*[#   3]+0.080*[#   4]+0.080*[#   5]+0.080*[#   6]+0.080*[#   7]
          +0.080*[#   8]+0.080*[#  11]+0.080*[#  12]+0.080*[#  13]+0.080*[#  14]
          +0.080*[#  15]+0.080*[#  16]
    |psi|^2 = 0.965
==== e(  13) =     8.74612 eV ==== 
     psi = 0.080*[#   3]+0.080*[#   4]+0.080*[#   5]+0.080*[#   6]+0.080*[#   7]
          +0.080*[#   8]+0.080*[#  11]+0.080*[#  12]+0.080*[#  13]+0.080*[#  14]
          +0.080*[#  15]+0.080*[#  16]
    |psi|^2 = 0.965
==== e(  14) =     8.74612 eV ==== 
     psi = 0.080*[#   3]+0.080*[#   4]+0.080*[#   5]+0.080*[#   6]+0.080*[#   7]
          +0.080*[#   8]+0.080*[#  11]+0.080*[#  12]+0.080*[#  13]+0.080*[#  14]
          +0.080*[#  15]+0.080*[#  16]
    |psi|^2 = 0.965
==== e(  15) =     9.66482 eV ==== 
     psi = 0.243*[#   1]+0.243*[#   2]+0.243*[#   9]+0.243*[#  10]
    |psi|^2 = 0.975
==== e(  16) =     9.66482 eV ==== 
     psi = 0.243*[#   1]+0.243*[#   2]+0.243*[#   9]+0.243*[#  10]
    |psi|^2 = 0.975

 k =   0.0000000000  0.0000000000  0.0000000000
==== e(   1) =    -5.69406 eV ==== 
     psi = 0.250*[#   1]+0.250*[#   2]+0.250*[#   9]+0.250*[#  10]
    |psi|^2 = 0.999
==== e(   2) =    -5.69406 eV ==== 
     psi = 0.250*[#   1]+0.250*[#   2]+0.250*[#   9]+0.250*[#  10]
    |psi|^2 = 0.999
==== e(   3) =     6.25801 eV ==== 
     psi = 0.111*[#   3]+0.111*[#   4]+0.111*[#  11]+0.111*[#  12]+0.065*[#   5]
          +0.065*[#   6]+0.065*[#   7]+0.065*[#   8]+0.065*[#  13]+0.065*[#  14]
          +0.065*[#  15]+0.065*[#  16]
    |psi|^2 = 0.963
==== e(   4) =     6.25801 eV ==== 
     psi = 0.098*[#   5]+0.098*[#   6]+0.098*[#   7]+0.098*[#   8]+0.098*[#  13]
          +0.098*[#  14]+0.098*[#  15]+0.098*[#  16]+0.046*[#   3]+0.046*[#   4]
          +0.046*[#  11]+0.046*[#  12]
    |psi|^2 = 0.963
==== e(   5) =     6.25801 eV ==== 
     psi = 0.089*[#   5]+0.089*[#   6]+0.089*[#   7]+0.089*[#   8]+0.089*[#  13]
          +0.089*[#  14]+0.089*[#  15]+0.089*[#  16]+0.063*[#   3]+0.063*[#   4]
          +0.063*[#  11]+0.063*[#  12]
    |psi|^2 = 0.963
==== e(   6) =     6.25801 eV ==== 
     psi = 0.087*[#   5]+0.087*[#   6]+0.087*[#   7]+0.087*[#   8]+0.087*[#  13]
          +0.087*[#  14]+0.087*[#  15]+0.087*[#  16]+0.066*[#   3]+0.066*[#   4]
          +0.066*[#  11]+0.066*[#  12]
    |psi|^2 = 0.963
==== e(   7) =     6.25801 eV ==== 
     psi = 0.127*[#   3]+0.127*[#   4]+0.127*[#  11]+0.127*[#  12]+0.057*[#   5]
          +0.057*[#   6]+0.057*[#   7]+0.057*[#   8]+0.057*[#  13]+0.057*[#  14]
          +0.057*[#  15]+0.057*[#  16]
    |psi|^2 = 0.963
==== e(   8) =     6.25801 eV ==== 
     psi = 0.086*[#   5]+0.086*[#   6]+0.086*[#   7]+0.086*[#   8]+0.086*[#  13]
          +0.086*[#  14]+0.086*[#  15]+0.086*[#  16]+0.069*[#   3]+0.069*[#   4]
          +0.069*[#  11]+0.069*[#  12]
    |psi|^2 = 0.963
==== e(   9) =     8.73390 eV ==== 
     psi = 0.137*[#   3]+0.137*[#   4]+0.137*[#  11]+0.137*[#  12]+0.052*[#   5]
          +0.052*[#   6]+0.052*[#   7]+0.052*[#   8]+0.052*[#  13]+0.052*[#  14]
          +0.052*[#  15]+0.052*[#  16]
    |psi|^2 = 0.965
==== e(  10) =     8.73390 eV ==== 
     psi = 0.099*[#   5]+0.099*[#   6]+0.099*[#   7]+0.099*[#   8]+0.099*[#  13]
          +0.099*[#  14]+0.099*[#  15]+0.099*[#  16]+0.044*[#   3]+0.044*[#   4]
          +0.044*[#  11]+0.044*[#  12]
    |psi|^2 = 0.965
==== e(  11) =     8.73390 eV ==== 
     psi = 0.091*[#   5]+0.091*[#   6]+0.091*[#   7]+0.091*[#   8]+0.091*[#  13]
          +0.091*[#  14]+0.091*[#  15]+0.091*[#  16]+0.060*[#   3]+0.060*[#   4]
          +0.060*[#  11]+0.060*[#  12]
    |psi|^2 = 0.965
==== e(  12) =     8.73390 eV ==== 
     psi = 0.089*[#   5]+0.089*[#   6]+0.089*[#   7]+0.089*[#   8]+0.089*[#  13]
          +0.089*[#  14]+0.089*[#  15]+0.089*[#  16]+0.063*[#   3]+0.063*[#   4]
          +0.063*[#  11]+0.063*[#  12]
    |psi|^2 = 0.965
==== e(  13) =     8.73390 eV ==== 
     psi = 0.138*[#   3]+0.138*[#   4]+0.138*[#  11]+0.138*[#  12]+0.052*[#   5]
          +0.052*[#   6]+0.052*[#   7]+0.052*[#   8]+0.052*[#  13]+0.052*[#  14]
          +0.052*[#  15]+0.052*[#  16]
    |psi|^2 = 0.965
==== e(  14) =     8.73390 eV ==== 
     psi = 0.100*[#   5]+0.100*[#   6]+0.100*[#   7]+0.100*[#   8]+0.100*[#  13]
          +0.100*[#  14]+0.100*[#  15]+0.100*[#  16]+0.042*[#   3]+0.042*[#   4]
          +0.042*[#  11]+0.042*[#  12]
    |psi|^2 = 0.965
==== e(  15) =     9.63775 eV ==== 
     psi = 0.244*[#   1]+0.244*[#   2]+0.244*[#   9]+0.244*[#  10]
    |psi|^2 = 0.975
==== e(  16) =     9.63775 eV ==== 
     psi = 0.244*[#   1]+0.244*[#   2]+0.244*[#   9]+0.244*[#  10]
    |psi|^2 = 0.975

Lowdin Charges: 

     Atom #   1: total charge =   3.9492, s =  1.1095, 
     Atom #   1: total charge =   3.9492, p =  2.8397, 
     Atom #   2: total charge =   3.9492, s =  1.1095, 
     Atom #   2: total charge =   3.9492, p =  2.8397, 
     Spilling Parameter:   0.0127

     PROJWFC      :      2.91s CPU      3.00s WALL


   This run was terminated on:  11:13:18   9Jun2025            

=------------------------------------------------------------------------------=
   JOB DONE.
=------------------------------------------------------------------------------=
